nqpoint: 510    
npath: 10     
segment_nqpoint:
- 51
- 51
- 51
- 51
- 51
- 51
- 51
- 51
- 51
- 51
reciprocal_lattice:
- [   0.00000000,   0.23995770,  -0.00000000 ] # a*
- [   0.00000000,   0.00000000,   0.22023814 ] # b*
- [   0.08631014,   0.00000000,   0.00000000 ] # c*
natom: 8      
lattice:
- [     0.0000000000000000,     4.1674011334026364,     0.0000000000000000 ] # a
- [     0.0000000000000000,     0.0000000000000002,     4.5405396739040542 ] # b
- [    11.5861236783830037,     0.0000000000000000,     0.0000000000000000 ] # c
atoms:
- symbol: Sn # 1
  position: [  0.2500000000000000,  0.1109508521318577,  0.1169839410907622 ]
  mass: 118.710000
- symbol: Sn # 2
  position: [  0.7500000000000000,  0.8890491478681423,  0.8830160589092378 ]
  mass: 118.710000
- symbol: Sn # 3
  position: [  0.7500000000000000,  0.6109508521318577,  0.3830160589092378 ]
  mass: 118.710000
- symbol: Sn # 4
  position: [  0.2500000000000000,  0.3890491478681423,  0.6169839820907620 ]
  mass: 118.710000
- symbol: Se # 5
  position: [  0.7500000000000000,  0.5181582869196778,  0.1452266187809678 ]
  mass: 78.960000
- symbol: Se # 6
  position: [  0.2500000000000000,  0.4818417130803222,  0.8547733102190299 ]
  mass: 78.960000
- symbol: Se # 7
  position: [  0.2500000000000000,  0.0181583699196740,  0.3547733912190331 ]
  mass: 78.960000
- symbol: Se # 8
  position: [  0.7500000000000000,  0.9818416600803214,  0.6452266487809702 ]
  mass: 78.960000
supercell_matrix:
- [    0,    4,    0 ]
- [    0,    0,    4 ]
- [    4,    0,    0 ]

phonon:
- q-position: [    0.5000000,    0.5000000,    0.5000000 ]
  distance:    0.0000000
  band:
  - # 1
    frequency:    1.4617062534
    group_velocity: [    -0.3275999,    -6.5475147,     0.0000000 ]
  - # 2
    frequency:    1.4617062534
    group_velocity: [    -0.3275999,    -6.5475147,     0.0000000 ]
  - # 3
    frequency:    1.4617062534
    group_velocity: [     0.3275999,     6.5475147,    -0.0000000 ]
  - # 4
    frequency:    1.4617062534
    group_velocity: [     0.3275999,     6.5475147,     0.0000000 ]
  - # 5
    frequency:    1.6946666450
    group_velocity: [    -0.5196994,    -2.3666742,    -0.0000000 ]
  - # 6
    frequency:    1.6946666450
    group_velocity: [    -0.5196994,    -2.3666742,     0.0000000 ]
  - # 7
    frequency:    1.6946666450
    group_velocity: [     0.5196994,     2.3666742,    -0.0000000 ]
  - # 8
    frequency:    1.6946666450
    group_velocity: [     0.5196994,     2.3666742,     0.0000000 ]
  - # 9
    frequency:    2.3219415545
    group_velocity: [    -2.4230228,    -3.2879849,    -0.0000000 ]
  - # 10
    frequency:    2.3219415545
    group_velocity: [    -2.4230228,    -3.2879849,    -0.0000000 ]
  - # 11
    frequency:    2.3219415545
    group_velocity: [     2.4230228,     3.2879849,    -0.0000000 ]
  - # 12
    frequency:    2.3219415545
    group_velocity: [     2.4230228,     3.2879849,     0.0000000 ]
  - # 13
    frequency:    3.4549406357
    group_velocity: [    -4.2387940,    -0.0330272,    -0.0000000 ]
  - # 14
    frequency:    3.4549406357
    group_velocity: [    -4.2387940,    -0.0330272,     0.0000000 ]
  - # 15
    frequency:    3.4549406357
    group_velocity: [     4.2387940,     0.0330272,    -0.0000000 ]
  - # 16
    frequency:    3.4549406357
    group_velocity: [     4.2387940,     0.0330272,    -0.0000000 ]
  - # 17
    frequency:    4.1425510870
    group_velocity: [    -2.5499223,    -0.2230036,    -0.0000000 ]
  - # 18
    frequency:    4.1425510870
    group_velocity: [    -2.5499223,    -0.2230036,     0.0000000 ]
  - # 19
    frequency:    4.1425510870
    group_velocity: [     2.5499223,     0.2230036,    -0.0000000 ]
  - # 20
    frequency:    4.1425510870
    group_velocity: [     2.5499223,     0.2230036,    -0.0000000 ]
  - # 21
    frequency:    4.4852277604
    group_velocity: [   -11.4680032,    -0.0309423,    -0.0000000 ]
  - # 22
    frequency:    4.4852277604
    group_velocity: [   -11.4680032,    -0.0309423,     0.0000000 ]
  - # 23
    frequency:    4.4852277604
    group_velocity: [    11.4680032,     0.0309423,    -0.0000000 ]
  - # 24
    frequency:    4.4852277604
    group_velocity: [    11.4680032,     0.0309423,    -0.0000000 ]

- q-position: [    0.4900000,    0.4900000,    0.4900000 ]
  distance:    0.0033695
  band:
  - # 1
    frequency:    1.4435876424
    group_velocity: [     0.5421969,     7.7973193,     0.4227682 ]
  - # 2
    frequency:    1.4439282069
    group_velocity: [     0.1539275,     7.8167863,     0.2714397 ]
  - # 3
    frequency:    1.4754222465
    group_velocity: [     0.1775395,    -5.2460271,     0.4869689 ]
  - # 4
    frequency:    1.4758527542
    group_velocity: [    -0.3146294,    -5.2626539,     0.2955318 ]
  - # 5
    frequency:    1.6891511891
    group_velocity: [     0.5600853,     2.3286447,    -0.5278855 ]
  - # 6
    frequency:    1.6896025683
    group_velocity: [     0.0625219,     2.3197330,    -0.7292195 ]
  - # 7
    frequency:    1.7014653721
    group_velocity: [    -0.2521420,    -2.5766424,    -0.4675647 ]
  - # 8
    frequency:    1.7019481167
    group_velocity: [    -0.7849268,    -2.5985868,    -0.6835848 ]
  - # 9
    frequency:    2.3119257335
    group_velocity: [     2.3487657,     3.0246341,     0.2685419 ]
  - # 10
    frequency:    2.3129294050
    group_velocity: [     1.3800032,     2.9823574,    -0.1768646 ]
  - # 11
    frequency:    2.3319314162
    group_velocity: [    -1.2062398,    -3.8711860,     0.2147234 ]
  - # 12
    frequency:    2.3330637992
    group_velocity: [    -2.3241494,    -3.9669954,    -0.2890793 ]
  - # 13
    frequency:    3.4527346075
    group_velocity: [     4.2737419,    -0.6531946,    -0.6527830 ]
  - # 14
    frequency:    3.4542329204
    group_velocity: [     4.1997745,    -1.2503471,    -1.3262284 ]
  - # 15
    frequency:    3.4602488591
    group_velocity: [    -4.1176144,    -0.7791904,    -0.6671853 ]
  - # 16
    frequency:    3.4617241466
    group_velocity: [    -4.1649136,    -1.3668143,    -1.3302099 ]
  - # 17
    frequency:    4.1401671371
    group_velocity: [     2.3516920,     0.1676778,    -0.2013108 ]
  - # 18
    frequency:    4.1404350178
    group_velocity: [     2.2873925,     0.0851247,    -0.3225687 ]
  - # 19
    frequency:    4.1456304441
    group_velocity: [    -2.3552600,    -0.3864791,    -0.1832095 ]
  - # 20
    frequency:    4.1459402761
    group_velocity: [    -2.4680928,    -0.4864916,    -0.3236403 ]
  - # 21
    frequency:    4.4753633034
    group_velocity: [    11.6286995,    -0.0539021,    -0.0838319 ]
  - # 22
    frequency:    4.4762349781
    group_velocity: [    11.6284903,    -0.4129904,    -0.4789456 ]
  - # 23
    frequency:    4.4952650598
    group_velocity: [   -11.1923004,    -0.1123567,    -0.0669408 ]
  - # 24
    frequency:    4.4961528437
    group_velocity: [   -11.2110789,    -0.4782610,    -0.4693741 ]

- q-position: [    0.4800000,    0.4800000,    0.4800000 ]
  distance:    0.0067390
  band:
  - # 1
    frequency:    1.4217576951
    group_velocity: [     0.7062280,     8.8246949,     0.7364542 ]
  - # 2
    frequency:    1.4228739517
    group_velocity: [     0.0734435,     8.9029356,     0.5042462 ]
  - # 3
    frequency:    1.4843790663
    group_velocity: [     0.6369473,    -3.8566209,     0.9750216 ]
  - # 4
    frequency:    1.4861556527
    group_velocity: [    -0.3740979,    -3.8958542,     0.6033328 ]
  - # 5
    frequency:    1.6847664061
    group_velocity: [     0.8181154,     2.3233066,    -1.0767351 ]
  - # 6
    frequency:    1.6865458372
    group_velocity: [    -0.1820130,     2.2957484,    -1.4526582 ]
  - # 7
    frequency:    1.7094465299
    group_velocity: [    -0.1215542,    -2.7269753,    -0.8277043 ]
  - # 8
    frequency:    1.7114782717
    group_velocity: [    -1.2522492,    -2.8078851,    -1.2682013 ]
  - # 9
    frequency:    2.3023808829
    group_velocity: [     2.6210102,     2.3817174,     0.5133772 ]
  - # 10
    frequency:    2.3059947748
    group_velocity: [     0.8792545,     2.3672412,    -0.2273684 ]
  - # 11
    frequency:    2.3415906431
    group_velocity: [    -0.3966072,    -4.0713763,     0.3021475 ]
  - # 12
    frequency:    2.3462297958
    group_velocity: [    -2.7325662,    -4.2975251,    -0.6704968 ]
  - # 13
    frequency:    3.4535458332
    group_velocity: [     4.3304846,    -1.3287235,    -1.2897587 ]
  - # 14
    frequency:    3.4594109644
    group_velocity: [     4.0787601,    -2.4360240,    -2.5602300 ]
  - # 15
    frequency:    3.4687800960
    group_velocity: [    -3.9366969,    -1.5826801,    -1.3682075 ]
  - # 16
    frequency:    3.4744639328
    group_velocity: [    -4.0835458,    -2.6532576,    -2.5980689 ]
  - # 17
    frequency:    4.1385970814
    group_velocity: [     2.2601725,     0.0366394,    -0.4046546 ]
  - # 18
    frequency:    4.1396185247
    group_velocity: [     2.1514795,    -0.1237270,    -0.6327953 ]
  - # 19
    frequency:    4.1491930733
    group_velocity: [    -2.2290238,    -0.4390614,    -0.3337447 ]
  - # 20
    frequency:    4.1505518080
    group_velocity: [    -2.5321649,    -0.6692316,    -0.6402473 ]
  - # 21
    frequency:    4.4658504548
    group_velocity: [    11.7485424,    -0.1874698,    -0.1933100 ]
  - # 22
    frequency:    4.4692847813
    group_velocity: [    11.7729274,    -0.8919587,    -0.9675712 ]
  - # 23
    frequency:    4.5053480912
    group_velocity: [   -10.8976171,    -0.1636734,    -0.1260084 ]
  - # 24
    frequency:    4.5089134040
    group_velocity: [   -10.9476053,    -0.8970958,    -0.9300923 ]

- q-position: [    0.4700000,    0.4700000,    0.4700000 ]
  distance:    0.0101084
  band:
  - # 1
    frequency:    1.3970538002
    group_velocity: [     0.7394093,     9.6602163,     0.9321510 ]
  - # 2
    frequency:    1.3990459371
    group_velocity: [    -0.0103732,     9.7999296,     0.6823631 ]
  - # 3
    frequency:    1.4885972991
    group_velocity: [     1.0709719,    -2.4855114,     1.4134863 ]
  - # 4
    frequency:    1.4925242694
    group_velocity: [    -0.4085346,    -2.5256059,     0.9165327 ]
  - # 5
    frequency:    1.6812394791
    group_velocity: [     1.1640572,     2.3971035,    -1.6229536 ]
  - # 6
    frequency:    1.6851822884
    group_velocity: [    -0.3529445,     2.3473748,    -2.1307518 ]
  - # 7
    frequency:    1.7182611301
    group_velocity: [     0.0406306,    -2.8387595,    -1.0447494 ]
  - # 8
    frequency:    1.7230856812
    group_velocity: [    -1.7515975,    -3.0206925,    -1.7218794 ]
  - # 9
    frequency:    2.2939271261
    group_velocity: [     2.6722214,     1.6323564,     0.6667283 ]
  - # 10
    frequency:    2.3009716485
    group_velocity: [     0.3965943,     1.7257914,    -0.1460527 ]
  - # 11
    frequency:    2.3508296977
    group_velocity: [     0.5153971,    -4.1460758,     0.2059740 ]
  - # 12
    frequency:    2.3613045341
    group_velocity: [    -3.0858702,    -4.5174080,    -1.1205910 ]
  - # 13
    frequency:    3.4572841104
    group_velocity: [     4.3822941,    -1.9827982,    -1.9030355 ]
  - # 14
    frequency:    3.4698825745
    group_velocity: [     3.6681697,    -3.3787289,    -3.5651207 ]
  - # 15
    frequency:    3.4807893682
    group_velocity: [    -3.4827231,    -2.5412802,    -2.1772904 ]
  - # 16
    frequency:    3.4927921735
    group_velocity: [    -3.9675603,    -3.8596552,    -3.7520475 ]
  - # 17
    frequency:    4.1378650172
    group_velocity: [     2.1299580,    -0.0842195,    -0.5942707 ]
  - # 18
    frequency:    4.1400908670
    group_velocity: [     1.9710038,    -0.3272154,    -0.9156413 ]
  - # 19
    frequency:    4.1529479330
    group_velocity: [    -1.9902093,    -0.4372204,    -0.4420459 ]
  - # 20
    frequency:    4.1563185955
    group_velocity: [    -2.5879324,    -0.8359481,    -0.9440973 ]
  - # 21
    frequency:    4.4569185419
    group_velocity: [    11.7865904,    -0.3665631,    -0.3359765 ]
  - # 22
    frequency:    4.4644941207
    group_velocity: [    11.8663828,    -1.3938867,    -1.4641280 ]
  - # 23
    frequency:    4.5153988338
    group_velocity: [   -10.5639830,    -0.2054187,    -0.1858132 ]
  - # 24
    frequency:    4.5234283990
    group_velocity: [   -10.6519997,    -1.3040668,    -1.3831087 ]

- q-position: [    0.4600000,    0.4600000,    0.4600000 ]
  distance:    0.0134779
  band:
  - # 1
    frequency:    1.3702315242
    group_velocity: [     0.6895973,    10.3386210,     1.0379747 ]
  - # 2
    frequency:    1.3731031020
    group_velocity: [    -0.1260277,    10.4675040,     0.7846030 ]
  - # 3
    frequency:    1.4883387079
    group_velocity: [     1.4334450,    -1.1561915,     1.7841377 ]
  - # 4
    frequency:    1.4949548607
    group_velocity: [    -0.4229079,    -1.1774815,     1.2318538 ]
  - # 5
    frequency:    1.6783522762
    group_velocity: [     1.5804406,     2.4931697,    -2.1545885 ]
  - # 6
    frequency:    1.6851522062
    group_velocity: [    -0.4320694,     2.4475799,    -2.7310071 ]
  - # 7
    frequency:    1.7274486541
    group_velocity: [     0.2375804,    -2.9083943,    -1.1154015 ]
  - # 8
    frequency:    1.7364795557
    group_velocity: [    -2.2537894,    -3.2236446,    -2.0457341 ]
  - # 9
    frequency:    2.2871977385
    group_velocity: [     2.5060292,     0.8383697,     0.6829862 ]
  - # 10
    frequency:    2.2975357739
    group_velocity: [    -0.0273465,     1.1185139,     0.0590892 ]
  - # 11
    frequency:    2.3597552078
    group_velocity: [     1.4737660,    -4.1223880,    -0.1014637 ]
  - # 12
    frequency:    2.3781040496
    group_velocity: [    -3.3806616,    -4.6336559,    -1.6136213 ]
  - # 13
    frequency:    3.4638373757
    group_velocity: [     4.4279110,    -2.6124689,    -2.4833235 ]
  - # 14
    frequency:    3.4845401454
    group_velocity: [     2.6709833,    -3.9275395,    -4.1560116 ]
  - # 15
    frequency:    3.4968077818
    group_velocity: [    -2.4520042,    -3.7638688,    -3.2282077 ]
  - # 16
    frequency:    3.5161515613
    group_velocity: [    -3.8177112,    -4.9531336,    -4.7556873 ]
  - # 17
    frequency:    4.1379066709
    group_velocity: [     1.9723044,    -0.1773731,    -0.7550388 ]
  - # 18
    frequency:    4.1417868779
    group_velocity: [     1.7334556,    -0.5121580,    -1.1511653 ]
  - # 19
    frequency:    4.1565605359
    group_velocity: [    -1.6175077,    -0.3806175,    -0.5092211 ]
  - # 20
    frequency:    4.1631610502
    group_velocity: [    -2.6384961,    -0.9845710,    -1.2309991 ]
  - # 21
    frequency:    4.4488405987
    group_velocity: [    11.7308625,    -0.5979983,    -0.5168270 ]
  - # 22
    frequency:    4.4619737679
    group_velocity: [    11.9024628,    -1.9146979,    -1.9638088 ]
  - # 23
    frequency:    4.5253834255
    group_velocity: [   -10.1981678,    -0.2452245,    -0.2540421 ]
  - # 24
    frequency:    4.5396320148
    group_velocity: [   -10.3264349,    -1.7039037,    -1.8289177 ]

- q-position: [    0.4500000,    0.4500000,    0.4500000 ]
  distance:    0.0168474
  band:
  - # 1
    frequency:    1.3417944450
    group_velocity: [     0.6272553,    10.9045065,     1.1046741 ]
  - # 2
    frequency:    1.3458699552
    group_velocity: [    -0.3204399,    10.8871911,     0.7868083 ]
  - # 3
    frequency:    1.4838988459
    group_velocity: [     1.7137431,     0.1492271,     2.0973089 ]
  - # 4
    frequency:    1.4935150369
    group_velocity: [    -0.4348405,     0.1270944,     1.5438938 ]
  - # 5
    frequency:    1.6760486483
    group_velocity: [     2.0399102,     2.5378348,    -2.6627333 ]
  - # 6
    frequency:    1.6860962890
    group_velocity: [    -0.3843848,     2.5450005,    -3.2220714 ]
  - # 7
    frequency:    1.7366215979
    group_velocity: [     0.4393165,    -2.9542951,    -1.0783532 ]
  - # 8
    frequency:    1.7513706720
    group_velocity: [    -2.7435068,    -3.4211249,    -2.2618282 ]
  - # 9
    frequency:    2.2827097256
    group_velocity: [     2.1464329,     0.0798156,     0.5466504 ]
  - # 10
    frequency:    2.2952086353
    group_velocity: [    -0.3429011,     0.6101666,     0.3608111 ]
  - # 11
    frequency:    2.3686152058
    group_velocity: [     2.4119549,    -4.0280123,    -0.6108679 ]
  - # 12
    frequency:    2.3964047658
    group_velocity: [    -3.6171861,    -4.6544648,    -2.1235198 ]
  - # 13
    frequency:    3.4730642825
    group_velocity: [     4.4650310,    -3.2118218,    -3.0218351 ]
  - # 14
    frequency:    3.5020044927
    group_velocity: [     1.2387898,    -4.1709667,    -4.3491790 ]
  - # 15
    frequency:    3.5174423411
    group_velocity: [    -0.9888016,    -5.1271146,    -4.4677524 ]
  - # 16
    frequency:    3.5438580358
    group_velocity: [    -3.6360364,    -5.9124894,    -5.5880864 ]
  - # 17
    frequency:    4.1385743478
    group_velocity: [     1.7959550,    -0.2253546,    -0.8716188 ]
  - # 18
    frequency:    4.1445623578
    group_velocity: [     1.4178338,    -0.6572606,    -1.3102446 ]
  - # 19
    frequency:    4.1597189604
    group_velocity: [    -1.0857610,    -0.2880090,    -0.5566537 ]
  - # 20
    frequency:    4.1709886545
    group_velocity: [    -2.6841922,    -1.1136961,    -1.4976358 ]
  - # 21
    frequency:    4.4419181096
    group_velocity: [    11.5715621,    -0.8848127,    -0.7366177 ]
  - # 22
    frequency:    4.4618088975
    group_velocity: [    11.8763506,    -2.4452967,    -2.4577613 ]
  - # 23
    frequency:    4.5353054913
    group_velocity: [    -9.8048951,    -0.2896218,    -0.3370007 ]
  - # 24
    frequency:    4.5574714224
    group_velocity: [    -9.9725684,    -2.1010412,    -2.2672603 ]

- q-position: [    0.4400000,    0.4400000,    0.4400000 ]
  distance:    0.0202169
  band:
  - # 1
    frequency:    1.3120393020
    group_velocity: [     0.6026183,    11.3496466,     1.1641716 ]
  - # 2
    frequency:    1.3182024224
    group_velocity: [    -0.6209871,    11.1104087,     0.6922160 ]
  - # 3
    frequency:    1.4754631182
    group_velocity: [     1.9305511,     1.4626674,     2.3755467 ]
  - # 4
    frequency:    1.4883756485
    group_velocity: [    -0.4712689,     1.3540074,     1.8392932 ]
  - # 5
    frequency:    1.6744393788
    group_velocity: [     2.5146158,     2.4726452,    -3.1361254 ]
  - # 6
    frequency:    1.6877032275
    group_velocity: [    -0.1745764,     2.5708052,    -3.5750354 ]
  - # 7
    frequency:    1.7455971083
    group_velocity: [     0.5922250,    -2.9905974,    -1.0029151 ]
  - # 8
    frequency:    1.7675324451
    group_velocity: [    -3.2135499,    -3.6213822,    -2.3945746 ]
  - # 9
    frequency:    2.2807515584
    group_velocity: [     1.6369182,    -0.5606242,     0.2727549 ]
  - # 10
    frequency:    2.2934053014
    group_velocity: [    -0.4993569,     0.2555474,     0.7100621 ]
  - # 11
    frequency:    2.3777146044
    group_velocity: [     3.2603949,    -3.8847431,    -1.2745461 ]
  - # 12
    frequency:    2.4159462625
    group_velocity: [    -3.7984098,    -4.5862238,    -2.6256127 ]
  - # 13
    frequency:    3.4847904783
    group_velocity: [     4.4915621,    -3.7727724,    -3.5110639 ]
  - # 14
    frequency:    3.5214414418
    group_velocity: [     0.0800063,    -4.4171796,    -4.4510225 ]
  - # 15
    frequency:    3.5426087879
    group_velocity: [     0.2062712,    -6.2957957,    -5.5668353 ]
  - # 16
    frequency:    3.5751623702
    group_velocity: [    -3.4267683,    -6.7270499,    -6.2426128 ]
  - # 17
    frequency:    4.1396328728
    group_velocity: [     1.6104476,    -0.2083721,    -0.9262729 ]
  - # 18
    frequency:    4.1481422756
    group_velocity: [     0.9803521,    -0.7202710,    -1.3406230 ]
  - # 19
    frequency:    4.1622549252
    group_velocity: [    -0.3578977,    -0.2151033,    -0.6453559 ]
  - # 20
    frequency:    4.1797011234
    group_velocity: [    -2.7233696,    -1.2227386,    -1.7411728 ]
  - # 21
    frequency:    4.4364552461
    group_velocity: [    11.3034374,    -1.2241704,    -0.9901158 ]
  - # 22
    frequency:    4.4640351220
    group_velocity: [    11.7867069,    -2.9714375,    -2.9329001 ]
  - # 23
    frequency:    4.5451979472
    group_velocity: [    -9.3866026,    -0.3439251,    -0.4391600 ]
  - # 24
    frequency:    4.5769035686
    group_velocity: [    -9.5918192,    -2.4993518,    -2.6969727 ]

- q-position: [    0.4300000,    0.4300000,    0.4300000 ]
  distance:    0.0235864
  band:
  - # 1
    frequency:    1.2812732959
    group_velocity: [     0.6195592,    11.6446972,     1.2151690 ]
  - # 2
    frequency:    1.2907325468
    group_velocity: [    -1.0101837,    11.2172527,     0.5389949 ]
  - # 3
    frequency:    1.4630859846
    group_velocity: [     2.1171687,     2.7954362,     2.6380496 ]
  - # 4
    frequency:    1.4798744515
    group_velocity: [    -0.5625097,     2.4527664,     2.0978030 ]
  - # 5
    frequency:    1.6737277592
    group_velocity: [     2.9794960,     2.2776720,    -3.5614595 ]
  - # 6
    frequency:    1.6897504466
    group_velocity: [     0.2151929,     2.4592959,    -3.7716703 ]
  - # 7
    frequency:    1.7544108155
    group_velocity: [     0.6420253,    -3.0092963,    -0.9609524 ]
  - # 8
    frequency:    1.7847946621
    group_velocity: [    -3.6581674,    -3.8277589,    -2.4615346 ]
  - # 9
    frequency:    2.2813243183
    group_velocity: [     1.0335272,    -1.0151988,    -0.1008056 ]
  - # 10
    frequency:    2.2915237104
    group_velocity: [    -0.4601242,     0.0850928,     1.0429727 ]
  - # 11
    frequency:    2.3873142939
    group_velocity: [     3.9619104,    -3.7023549,    -2.0169910 ]
  - # 12
    frequency:    2.4364321610
    group_velocity: [    -3.9291723,    -4.4325673,    -3.0980907 ]
  - # 13
    frequency:    3.4988069870
    group_velocity: [     4.5060466,    -4.2856960,    -3.9451188 ]
  - # 14
    frequency:    3.5426432948
    group_velocity: [    -0.5967847,    -4.7535122,    -4.6007129 ]
  - # 15
    frequency:    3.5714979433
    group_velocity: [     0.9327514,    -7.1630001,    -6.3761679 ]
  - # 16
    frequency:    3.6093037274
    group_velocity: [    -3.1962609,    -7.3947780,    -6.7240764 ]
  - # 17
    frequency:    4.1407366492
    group_velocity: [     1.4321171,    -0.0999676,    -0.8946226 ]
  - # 18
    frequency:    4.1519782781
    group_velocity: [     0.3594655,    -0.6064634,    -1.1410785 ]
  - # 19
    frequency:    4.1643855542
    group_velocity: [     0.6019205,    -0.2910012,    -0.9069904 ]
  - # 20
    frequency:    4.1891899402
    group_velocity: [    -2.7532842,    -1.3119696,    -1.9590509 ]
  - # 21
    frequency:    4.4327230121
    group_velocity: [    10.9280030,    -1.6056794,    -1.2649520 ]
  - # 22
    frequency:    4.4686154833
    group_velocity: [    11.6368281,    -3.4750773,    -3.3730265 ]
  - # 23
    frequency:    4.5551133570
    group_velocity: [    -8.9431658,    -0.4121639,    -0.5627054 ]
  - # 24
    frequency:    4.5978913703
    group_velocity: [    -9.1855852,    -2.9019135,    -3.1159317 ]

- q-position: [    0.4200000,    0.4200000,    0.4200000 ]
  distance:    0.0269558
  band:
  - # 1
    frequency:    1.2498470049
    group_velocity: [     0.6637038,    11.7986388,     1.2543915 ]
  - # 2
    frequency:    1.2638263121
    group_velocity: [    -1.4532081,    11.2515576,     0.3654385 ]
  - # 3
    frequency:    1.4467936767
    group_velocity: [     2.3032095,     4.1102057,     2.8891067 ]
  - # 4
    frequency:    1.4685367843
    group_velocity: [    -0.7330800,     3.3787299,     2.3029190 ]
  - # 5
    frequency:    1.6741038777
    group_velocity: [     3.4137090,     1.9761309,    -3.9275500 ]
  - # 6
    frequency:    1.6921196337
    group_velocity: [     0.7754737,     2.1728220,    -3.8127170 ]
  - # 7
    frequency:    1.7632282170
    group_velocity: [     0.5575645,    -2.9850695,    -0.9993872 ]
  - # 8
    frequency:    1.8030127065
    group_velocity: [    -4.0710828,    -4.0377094,    -2.4727448 ]
  - # 9
    frequency:    2.2841388877
    group_velocity: [     0.3948660,    -1.2280164,    -0.5197116 ]
  - # 10
    frequency:    2.2890593883
    group_velocity: [    -0.2183600,     0.0824186,     1.2922125 ]
  - # 11
    frequency:    2.3975421611
    group_velocity: [     4.4873766,    -3.4762891,    -2.7569914 ]
  - # 12
    frequency:    2.4575328007
    group_velocity: [    -4.0154368,    -4.1949675,    -3.5230258 ]
  - # 13
    frequency:    3.5148704761
    group_velocity: [     4.5077077,    -4.7401452,    -4.3198364 ]
  - # 14
    frequency:    3.5654997698
    group_velocity: [    -0.9464643,    -5.1263385,    -4.7711596 ]
  - # 15
    frequency:    3.6031468739
    group_velocity: [     1.3537481,    -7.7696143,    -6.9228948 ]
  - # 16
    frequency:    3.6455506134
    group_velocity: [    -2.9524890,    -7.9198901,    -7.0452326 ]
  - # 17
    frequency:    4.1413782880
    group_velocity: [     1.2949591,     0.1362949,    -0.7417875 ]
  - # 18
    frequency:    4.1550282959
    group_velocity: [    -0.2916611,    -0.2222904,    -0.6679504 ]
  - # 19
    frequency:    4.1670593450
    group_velocity: [     1.5857787,    -0.6658027,    -1.4392105 ]
  - # 20
    frequency:    4.1993400679
    group_velocity: [    -2.7709735,    -1.3822617,    -2.1488595 ]
  - # 21
    frequency:    4.4309182073
    group_velocity: [    10.4545050,    -2.0110500,    -1.5418810 ]
  - # 22
    frequency:    4.4754261581
    group_velocity: [    11.4339381,    -3.9371180,    -3.7612173 ]
  - # 23
    frequency:    4.5651130149
    group_velocity: [    -8.4716277,    -0.4970926,    -0.7071320 ]
  - # 24
    frequency:    4.6203994847
    group_velocity: [    -8.7554057,    -3.3107758,    -3.5210792 ]

- q-position: [    0.4100000,    0.4100000,    0.4100000 ]
  distance:    0.0303253
  band:
  - # 1
    frequency:    1.2180690772
    group_velocity: [     0.7242995,    11.8411760,     1.2858174 ]
  - # 2
    frequency:    1.2376750836
    group_velocity: [    -1.9192471,    11.2352052,     0.1988741 ]
  - # 3
    frequency:    1.4267537338
    group_velocity: [     2.4994007,     5.3253636,     3.1148144 ]
  - # 4
    frequency:    1.4550002216
    group_velocity: [    -0.9924023,     4.1151218,     2.4522744 ]
  - # 5
    frequency:    1.6756616516
    group_velocity: [     3.8012423,     1.6189300,    -4.2290075 ]
  - # 6
    frequency:    1.6947768459
    group_velocity: [     1.4732915,     1.7152940,    -3.7185913 ]
  - # 7
    frequency:    1.7722284736
    group_velocity: [     0.3403139,    -2.8940690,    -1.1289963 ]
  - # 8
    frequency:    1.8220410340
    group_velocity: [    -4.4460316,    -4.2448935,    -2.4327729 ]
  - # 9
    frequency:    2.2854182055
    group_velocity: [     0.2104600,     0.3089727,     1.3183162 ]
  - # 10
    frequency:    2.2889407081
    group_velocity: [    -0.2385570,    -1.2781274,    -0.8381852 ]
  - # 11
    frequency:    2.4083488440
    group_velocity: [     4.8400380,    -3.1916064,    -3.4304512 ]
  - # 12
    frequency:    2.4788914573
    group_velocity: [    -4.0636541,    -3.8740950,    -3.8868341 ]
  - # 13
    frequency:    3.5327054992
    group_velocity: [     4.4963097,    -5.1256568,    -4.6327503 ]
  - # 14
    frequency:    3.5898155301
    group_velocity: [    -1.1078743,    -5.4858685,    -4.9221357 ]
  - # 15
    frequency:    3.6366567992
    group_velocity: [     1.6161168,    -8.1589371,    -7.2550944 ]
  - # 16
    frequency:    3.6832276013
    group_velocity: [    -2.7043267,    -8.3103000,    -7.2233639 ]
  - # 17
    frequency:    4.1408515042
    group_velocity: [     1.2616450,     0.5246354,    -0.4435342 ]
  - # 18
    frequency:    4.1564463164
    group_velocity: [    -0.4766093,     0.1556207,    -0.3135865 ]
  - # 19
    frequency:    4.1713601108
    group_velocity: [     2.0071981,    -1.1151249,    -1.9015492 ]
  - # 20
    frequency:    4.2100311728
    group_velocity: [    -2.7739870,    -1.4345738,    -2.3082472 ]
  - # 21
    frequency:    4.4311265181
    group_velocity: [     9.8988348,    -2.4157390,    -1.7968801 ]
  - # 22
    frequency:    4.4842570101
    group_velocity: [    11.1863104,    -4.3405383,    -4.0826469 ]
  - # 23
    frequency:    4.5752552285
    group_velocity: [    -7.9659979,    -0.6003298,    -0.8689789 ]
  - # 24
    frequency:    4.6443897694
    group_velocity: [    -8.3030673,    -3.7267275,    -3.9085234 ]

- q-position: [    0.4000000,    0.4000000,    0.4000000 ]
  distance:    0.0336948
  band:
  - # 1
    frequency:    1.1861658136
    group_velocity: [     0.7971319,    11.8044939,     1.3164277 ]
  - # 2
    frequency:    1.2123518402
    group_velocity: [    -2.3845033,    11.1840046,     0.0586552 ]
  - # 3
    frequency:    1.4033850649
    group_velocity: [     2.6951396,     6.3575481,     3.2920812 ]
  - # 4
    frequency:    1.4399044597
    group_velocity: [    -1.3330189,     4.6658915,     2.5563443 ]
  - # 5
    frequency:    1.6783700638
    group_velocity: [     4.1297783,     1.2614368,    -4.4662019 ]
  - # 6
    frequency:    1.6977268650
    group_velocity: [     2.2658627,     1.1265530,    -3.5219179 ]
  - # 7
    frequency:    1.7815265606
    group_velocity: [     0.0169776,    -2.7277778,    -1.3314574 ]
  - # 8
    frequency:    1.8417170897
    group_velocity: [    -4.7774090,    -4.4411114,    -2.3426510 ]
  - # 9
    frequency:    2.2807909964
    group_velocity: [     0.7666302,     0.6463971,     1.4093828 ]
  - # 10
    frequency:    2.2947426769
    group_velocity: [    -0.8172974,    -1.1041877,    -1.3186764 ]
  - # 11
    frequency:    2.4195200957
    group_velocity: [     5.0457934,    -2.8309266,    -4.0013549 ]
  - # 12
    frequency:    2.5001339231
    group_velocity: [    -4.0802609,    -3.4712145,    -4.1802090 ]
  - # 13
    frequency:    3.5520086465
    group_velocity: [     4.4719425,    -5.4325477,    -4.8829444 ]
  - # 14
    frequency:    3.6153216709
    group_velocity: [    -1.1582096,    -5.8017434,    -5.0298319 ]
  - # 15
    frequency:    3.6712114021