nqpoint: 357    
npath: 7      
segment_nqpoint:
- 51
- 51
- 51
- 51
- 51
- 51
- 51
reciprocal_lattice:
- [  -0.27999029,  -0.27999029,  -0.27999029 ] # a*
- [   0.27999029,   0.27999029,  -0.27999029 ] # b*
- [   0.27999029,  -0.27999029,   0.27999029 ] # c*
natom: 2      
lattice:
- [     0.000000000000000,    -1.785776231468991,    -1.785776231468991 ] # a
- [     1.785776231468991,     0.000000000000000,    -1.785776231468991 ] # b
- [     1.785776231468991,    -1.785776231468991,     0.000000000000000 ] # c
points:
- symbol: C  # 1
  coordinates: [  0.500000000000000,  0.500000000000000,  0.500000000000000 ]
  mass: 12.010700
- symbol: C  # 2
  coordinates: [  0.750000016999998,  0.749999983000002,  0.749999983000002 ]
  mass: 12.010700
supercell_matrix:
- [   -4,   -4,   -4 ]
- [    4,    4,   -4 ]
- [    4,   -4,    4 ]

phonon:
- q-position: [    0.3750000,    0.3750000,    0.7500000 ]
  distance:    0.0000000
  band:
  - # 1
    frequency:   22.5458591308
    group_velocity: [    15.2932447,   -15.2932447,     0.0000000 ]
  - # 2
    frequency:   28.8896667522
    group_velocity: [   -57.9248775,    57.9248775,     0.0000000 ]
  - # 3
    frequency:   29.8953045972
    group_velocity: [    23.3876519,   -23.3876519,    -0.0000000 ]
  - # 4
    frequency:   31.7732273740
    group_velocity: [    49.2613481,   -49.2613481,    -0.0000000 ]
  - # 5
    frequency:   32.4662574177
    group_velocity: [    -8.6069105,     8.6069105,    -0.0000000 ]
  - # 6
    frequency:   36.6599849968
    group_velocity: [    -6.9489195,     6.9489195,    -0.0000000 ]

- q-position: [    0.3675000,    0.3675000,    0.7350000 ]
  distance:    0.0059395
  band:
  - # 1
    frequency:   22.4110537349
    group_velocity: [    16.8136811,   -16.8136811,     0.0000000 ]
  - # 2
    frequency:   29.3648242933
    group_velocity: [   -54.5098144,    54.5098144,     0.0000000 ]
  - # 3
    frequency:   29.6965311942
    group_velocity: [    23.9358894,   -23.9358894,    -0.0000000 ]
  - # 4
    frequency:   31.3640595937
    group_velocity: [    47.4903040,   -47.4903040,    -0.0000000 ]
  - # 5
    frequency:   32.5415285743
    group_velocity: [    -9.3202295,     9.3202295,    -0.0000000 ]
  - # 6
    frequency:   36.7165231389
    group_velocity: [    -6.5023403,     6.5023403,    -0.0000000 ]

- q-position: [    0.3600000,    0.3600000,    0.7200000 ]
  distance:    0.0118790
  band:
  - # 1
    frequency:   22.2632526957
    group_velocity: [    18.3863861,   -18.3863861,     0.0000000 ]
  - # 2
    frequency:   29.4932580585
    group_velocity: [    24.4618459,   -24.4618459,     0.0000000 ]
  - # 3
    frequency:   29.7790497567
    group_velocity: [   -40.7764467,    40.7764467,    -0.0000000 ]
  - # 4
    frequency:   31.0012970174
    group_velocity: [    35.5692436,   -35.5692436,    -0.0000000 ]
  - # 5
    frequency:   32.6229111461
    group_velocity: [   -10.0618446,    10.0618446,    -0.0000000 ]
  - # 6
    frequency:   36.7690528600
    group_velocity: [    -5.9959053,     5.9959053,    -0.0000000 ]

- q-position: [    0.3525000,    0.3525000,    0.7050000 ]
  distance:    0.0178185
  band:
  - # 1
    frequency:   22.1020469499
    group_velocity: [    20.0041594,   -20.0041594,     0.0000000 ]
  - # 2
    frequency:   29.2856009666
    group_velocity: [    24.9826361,   -24.9826361,     0.0000000 ]
  - # 3
    frequency:   29.9383076349
    group_velocity: [     9.5458788,    -9.5458788,     0.0000000 ]
  - # 4
    frequency:   30.8776240583
    group_velocity: [   -12.7870786,    12.7870786,    -0.0000000 ]
  - # 5
    frequency:   32.7106361972
    group_velocity: [   -10.8300371,    10.8300371,    -0.0000000 ]
  - # 6
    frequency:   36.8171079628
    group_velocity: [    -5.4384673,     5.4384673,    -0.0000000 ]

- q-position: [    0.3450000,    0.3450000,    0.6900000 ]
  distance:    0.0237580
  band:
  - # 1
    frequency:   21.9270892262
    group_velocity: [    21.6595199,   -21.6595199,     0.0000000 ]
  - # 2
    frequency:   29.0735290370
    group_velocity: [    25.5160508,   -25.5160508,     0.0000000 ]
  - # 3
    frequency:   29.6738663013
    group_velocity: [    45.6176591,   -45.6176591,    -0.0000000 ]
  - # 4
    frequency:   31.1605366055
    group_velocity: [   -46.7520320,    46.7520320,    -0.0000000 ]
  - # 5
    frequency:   32.8049166609
    group_velocity: [   -11.6222007,    11.6222007,    -0.0000000 ]
  - # 6
    frequency:   36.8603004404
    group_velocity: [    -4.8398126,     4.8398126,    -0.0000000 ]

- q-position: [    0.3375000,    0.3375000,    0.6750000 ]
  distance:    0.0296975
  band:
  - # 1
    frequency:   21.7380956176
    group_velocity: [    23.3448917,   -23.3448917,     0.0000000 ]
  - # 2
    frequency:   28.8568594589
    group_velocity: [    26.0804541,   -26.0804541,     0.0000000 ]
  - # 3
    frequency:   29.2447607372
    group_velocity: [    54.7626318,   -54.7626318,    -0.0000000 ]
  - # 4
    frequency:   31.5898649723
    group_velocity: [   -53.6605555,    53.6605555,    -0.0000000 ]
  - # 5
    frequency:   32.9059397223
    group_velocity: [   -12.4348075,    12.4348075,    -0.0000000 ]
  - # 6
    frequency:   36.8983288052
    group_velocity: [    -4.2107692,     4.2107692,    -0.0000000 ]

- q-position: [    0.3300000,    0.3300000,    0.6600000 ]
  distance:    0.0356369
  band:
  - # 1
    frequency:   21.5348456258
    group_velocity: [    25.0527814,   -25.0527814,     0.0000000 ]
  - # 2
    frequency:   28.6352532299
    group_velocity: [    26.6946456,   -26.6946456,     0.0000000 ]
  - # 3
    frequency:   28.7684700781
    group_velocity: [    58.2352988,   -58.2352988,    -0.0000000 ]
  - # 4
    frequency:   32.0470828918
    group_velocity: [   -54.7768341,    54.7768341,    -0.0000000 ]
  - # 5
    frequency:   33.0138590235
    group_velocity: [   -13.2633997,    13.2633997,    -0.0000000 ]
  - # 6
    frequency:   36.9309871110
    group_velocity: [    -3.5632627,     3.5632627,    -0.0000000 ]

- q-position: [    0.3225000,    0.3225000,    0.6450000 ]
  distance:    0.0415764
  band:
  - # 1
    frequency:   21.3171807668
    group_velocity: [    26.7759430,   -26.7759430,     0.0000000 ]
  - # 2
    frequency:   28.2703993234
    group_velocity: [    60.2205975,   -60.2205975,     0.0000000 ]
  - # 3
    frequency:   28.4082122064
    group_velocity: [    27.3776854,   -27.3776854,    -0.0000000 ]
  - # 4
    frequency:   32.5058139799
    group_velocity: [   -54.2942015,    54.2942015,    -0.0000000 ]
  - # 5
    frequency:   33.1287869183
    group_velocity: [   -14.1026101,    14.1026101,    -0.0000000 ]
  - # 6
    frequency:   36.9581742058
    group_velocity: [    -2.9103132,     2.9103132,     0.0000000 ]

- q-position: [    0.3150000,    0.3150000,    0.6300000 ]
  distance:    0.0475159
  band:
  - # 1
    frequency:   21.0850018558
    group_velocity: [    28.5075265,   -28.5075265,     0.0000000 ]
  - # 2
    frequency:   27.7583108625
    group_velocity: [    61.6495687,   -61.6495687,     0.0000000 ]
  - # 3
    frequency:   28.1750777888
    group_velocity: [    28.1486791,   -28.1486791,    -0.0000000 ]
  - # 4
    frequency:   32.9573905654
    group_velocity: [   -53.1510924,    53.1510924,    -0.0000000 ]
  - # 5
    frequency:   33.2507870222
    group_velocity: [   -14.9462117,    14.9462117,    -0.0000000 ]
  - # 6
    frequency:   36.9799026685
    group_velocity: [    -2.2659619,     2.2659619,    -0.0000000 ]

- q-position: [    0.3075000,    0.3075000,    0.6150000 ]
  distance:    0.0534554
  band:
  - # 1
    frequency:   20.8382651201
    group_velocity: [    30.2412079,   -30.2412079,     0.0000000 ]
  - # 2
    frequency:   27.2354475548
    group_velocity: [    62.8147542,   -62.8147542,     0.0000000 ]
  - # 3
    frequency:   27.9350315943
    group_velocity: [    29.0265192,   -29.0265192,    -0.0000000 ]
  - # 4
    frequency:   33.3798673042
    group_velocity: [   -15.7871976,    15.7871976,    -0.0000000 ]
  - # 5
    frequency:   33.3977235060
    group_velocity: [   -51.6467563,    51.6467563,    -0.0000000 ]
  - # 6
    frequency:   36.9963068084
    group_velocity: [    -1.6451197,     1.6451197,    -0.0000000 ]

- q-position: [    0.3000000,    0.3000000,    0.6000000 ]
  distance:    0.0593949
  band:
  - # 1
    frequency:   20.5769773090
    group_velocity: [    31.9712979,   -31.9712979,     0.0000000 ]
  - # 2
    frequency:   26.7034580226
    group_velocity: [    63.8358884,   -63.8358884,     0.0000000 ]
  - # 3
    frequency:   27.6870984996
    group_velocity: [    30.0295785,   -30.0295785,    -0.0000000 ]
  - # 4
    frequency:   33.5159739638
    group_velocity: [   -16.6178873,    16.6178873,    -0.0000000 ]
  - # 5
    frequency:   33.8243725000
    group_velocity: [   -49.9072757,    49.9072757,    -0.0000000 ]
  - # 6
    frequency:   37.0076490338
    group_velocity: [    -1.0633297,     1.0633297,    -0.0000000 ]

- q-position: [    0.2925000,    0.2925000,    0.5850000 ]
  distance:    0.0653344
  band:
  - # 1
    frequency:   20.3011899908
    group_velocity: [    33.6928265,   -33.6928265,     0.0000000 ]
  - # 2
    frequency:   26.1632745222
    group_velocity: [    64.7731619,   -64.7731619,     0.0000000 ]
  - # 3
    frequency:   27.4301524636
    group_velocity: [    31.1753547,   -31.1753547,    -0.0000000 ]
  - # 4
    frequency:   33.6589863190
    group_velocity: [   -17.4300606,    17.4300606,    -0.0000000 ]
  - # 5
    frequency:   34.2356665462
    group_velocity: [   -47.9991489,    47.9991489,    -0.0000000 ]
  - # 6
    frequency:   37.0143238511
    group_velocity: [    -0.5364396,     0.5364396,    -0.0000000 ]

- q-position: [    0.2850000,    0.2850000,    0.5700000 ]
  distance:    0.0712739
  band:
  - # 1
    frequency:   20.0109932385
    group_velocity: [    35.4016034,   -35.4016034,     0.0000000 ]
  - # 2
    frequency:   25.6154411217
    group_velocity: [    65.6620294,   -65.6620294,     0.0000000 ]
  - # 3
    frequency:   27.1629255449
    group_velocity: [    32.4800660,   -32.4800660,    -0.0000000 ]
  - # 4
    frequency:   33.8087129043
    group_velocity: [   -18.2151114,    18.2151114,    -0.0000000 ]
  - # 5
    frequency:   34.6303766984
    group_velocity: [   -45.9643957,    45.9643957,    -0.0000000 ]
  - # 6
    frequency:   37.0168587366
    group_velocity: [    -0.0801857,     0.0801857,    -0.0000000 ]

- q-position: [    0.2775000,    0.2775000,    0.5550000 ]
  distance:    0.0772134
  band:
  - # 1
    frequency:   19.7065089188
    group_velocity: [    37.0942522,   -37.0942522,     0.0000000 ]
  - # 2
    frequency:   25.0602602441
    group_velocity: [    66.5258352,   -66.5258352,     0.0000000 ]
  - # 3
    frequency:   26.8840204992
    group_velocity: [    33.9582042,   -33.9582042,     0.0000000 ]
  - # 4
    frequency:   33.9648889434
    group_velocity: [   -18.9642199,    18.9642199,    -0.0000000 ]
  - # 5
    frequency:   35.0075728210
    group_velocity: [   -43.8334473,    43.8334473,    -0.0000000 ]
  - # 6
    frequency:   37.0159111609
    group_velocity: [     0.2903052,    -0.2903052,     0.0000000 ]

- q-position: [    0.2700000,    0.2700000,    0.5400000 ]
  distance:    0.0831529
  band:
  - # 1
    frequency:   19.3878838006
    group_velocity: [    38.7682194,   -38.7682194,     0.0000000 ]
  - # 2
    frequency:   24.4978696873
    group_velocity: [    67.3809808,   -67.3809808,     0.0000000 ]
  - # 3
    frequency:   26.5919272645
    group_velocity: [    35.6220590,   -35.6220590,    -0.0000000 ]
  - # 4
    frequency:   34.1271753196
    group_velocity: [   -19.6685365,    19.6685365,    -0.0000000 ]
  - # 5
    frequency:   35.3665519061
    group_velocity: [   -41.6305333,    41.6305333,    -0.0000000 ]
  - # 6
    frequency:   37.0122611426
    group_velocity: [     0.5610788,    -0.5610788,     0.0000000 ]

- q-position: [    0.2625000,    0.2625000,    0.5250000 ]
  distance:    0.0890924
  band:
  - # 1
    frequency:   19.0552826990
    group_velocity: [    40.4217567,   -40.4217567,     0.0000000 ]
  - # 2
    frequency:   23.9282899815
    group_velocity: [    68.2392452,   -68.2392452,     0.0000000 ]
  - # 3
    frequency:   26.2850434951
    group_velocity: [    37.4812340,   -37.4812340,     0.0000000 ]
  - # 4
    frequency:   34.2951591176
    group_velocity: [   -20.3193709,    20.3193709,    -0.0000000 ]
  - # 5
    frequency:   35.7067976997
    group_velocity: [   -39.3761734,    39.3761734,    -0.0000000 ]
  - # 6
    frequency:   37.0067988864
    group_velocity: [     0.7199557,    -0.7199557,     0.0000000 ]

- q-position: [    0.2550000,    0.2550000,    0.5100000 ]
  distance:    0.0950319
  band:
  - # 1
    frequency:   18.7088818675
    group_velocity: [    42.0538799,   -42.0538799,     0.0000000 ]
  - # 2
    frequency:   23.3514579212
    group_velocity: [    69.1089200,   -69.1089200,     0.0000000 ]
  - # 3
    frequency:   25.9616990926
    group_velocity: [    39.5421842,   -39.5421842,    -0.0000000 ]
  - # 4
    frequency:   34.4683557590
    group_velocity: [   -20.9083814,    20.9083814,    -0.0000000 ]
  - # 5
    frequency:   36.0279553617
    group_velocity: [   -37.0884287,    37.0884287,    -0.0000000 ]
  - # 6
    frequency:   37.0005073174
    group_velocity: [     0.7571374,    -0.7571374,     0.0000000 ]

- q-position: [    0.2475000,    0.2475000,    0.4950000 ]
  distance:    0.1009713
  band:
  - # 1
    frequency:   18.3488628360
    group_velocity: [    43.6643043,   -43.6643043,    -0.0000000 ]
  - # 2
    frequency:   22.7672530597
    group_velocity: [    69.9954195,   -69.9954195,    -0.0000000 ]
  - # 3
    frequency:   25.6201844053
    group_velocity: [    41.8078119,   -41.8078119,    -0.0000000 ]
  - # 4
    frequency:   34.6462127050
    group_velocity: [   -21.4277575,    21.4277575,     0.0000000 ]
  - # 5
    frequency:   36.3298139098
    group_velocity: [   -34.7835734,    34.7835734,     0.0000000 ]
  - # 6
    frequency:   36.9944396542
    group_velocity: [     0.6657741,    -0.6657741,    -0.0000000 ]

- q-position: [    0.2400000,    0.2400000,    0.4800000 ]
  distance:    0.1069108
  band:
  - # 1
    frequency:   17.9754068816
    group_velocity: [    45.2533591,   -45.2533591,    -0.0000000 ]
  - # 2
    frequency:   22.1755201936
    group_velocity: [    70.9016566,   -70.9016566,    -0.0000000 ]
  - # 3
    frequency:   25.2587814469
    group_velocity: [    44.2771580,   -44.2771580,    -0.0000000 ]
  - # 4
    frequency:   34.8281146449
    group_velocity: [   -21.8703906,    21.8703906,     0.0000000 ]
  - # 5
    frequency:   36.6122929565
    group_velocity: [   -32.4764763,    32.4764763,     0.0000000 ]
  - # 6
    frequency:   36.9896925437
    group_velocity: [     0.4424459,    -0.4424459,    -0.0000000 ]

- q-position: [    0.2325000,    0.2325000,    0.4650000 ]
  distance:    0.1128503
  band:
  - # 1
    frequency:   17.5886902915
    group_velocity: [    46.8218846,   -46.8218846,    -0.0000000 ]
  - # 2
    frequency:   21.5760891791
    group_velocity: [    71.8283170,   -71.8283170,    -0.0000000 ]
  - # 3
    frequency:   24.8757971646
    group_velocity: [    46.9452288,   -46.9452288,    -0.0000000 ]
  - # 4
    frequency:   35.0133900458
    group_velocity: [   -22.2300264,    22.2300264,     0.0000000 ]
  - # 5
    frequency:   36.8754319404
    group_velocity: [   -30.1808290,    30.1808290,     0.0000000 ]
  - # 6
    frequency:   36.9873756704
    group_velocity: [     0.0875139,    -0.0875139,    -0.0000000 ]

- q-position: [    0.2250000,    0.2250000,    0.4500000 ]
  distance:    0.1187898
  band:
  - # 1
    frequency:   17.1888805589
    group_velocity: [    48.3711137,   -48.3711137,    -0.0000000 ]
  - # 2
    frequency:   20.9687926302
    group_velocity: [    72.7740969,   -72.7740969,    -0.0000000 ]
  - # 3
    frequency:   24.4695974997
    group_velocity: [    49.8029840,   -49.8029840,    -0.0000000 ]
  - # 4
    frequency:   35.2013188947
    group_velocity: [   -22.5013958,    22.5013958,     0.0000000 ]
  - # 5
    frequency:   36.9885791034
    group_velocity: [    -0.3946977,     0.3946977,     0.0000000 ]
  - # 6
    frequency:   37.1193808765
    group_velocity: [   -27.9092873,    27.9092873,     0.0000000 ]

- q-position: [    0.2175000,    0.2175000,    0.4350000 ]
  distance:    0.1247293
  band:
  - # 1
    frequency:   16.7761336182
    group_velocity: [    49.9025434,   -49.9025434,    -0.0000000 ]
  - # 2
    frequency:   20.3534816608
    group_velocity: [    73.7359342,   -73.7359342,    -0.0000000 ]
  - # 3
    frequency:   24.0386408003
    group_velocity: [    52.8375042,   -52.8375042,    -0.0000000 ]
  - # 4
    frequency:   35.3911414338
    group_velocity: [   -22.6803195,    22.6803195,     0.0000000 ]
  - # 5
    frequency:   36.9943399034
    group_velocity: [    -0.9959097,     0.9959097,     0.0000000 ]
  - # 6
    frequency:   37.3443920703
    group_velocity: [   -25.6735634,    25.6735634,     0.0000000 ]

- q-position: [    0.2100000,    0.2100000,    0.4200000 ]
  distance:    0.1306688
  band:
  - # 1
    frequency:   16.3505921969
    group_velocity: [    51.4177985,   -51.4177985,    -0.0000000 ]
  - # 2
    frequency:   19.7300396516
    group_velocity: [    74.7092493,   -74.7092493,    -0.0000000 ]
  - # 3
    frequency:   23.5815090874
    group_velocity: [    56.0323328,   -56.0323328,    -0.0000000 ]
  - # 4
    frequency:   35.5820676576
    group_velocity: [   -22.7637850,    22.7637850,     0.0000000 ]
  - # 5
    frequency:   37.0056096325
    group_velocity: [    -1.7040937,     1.7040937,     0.0000000 ]
  - # 6
    frequency:   37.5508124709
    group_velocity: [   -23.4844886,    23.4844886,     0.0000000 ]

- q-position: [    0.2025000,    0.2025000,    0.4050000 ]
  distance:    0.1366083
  band:
  - # 1
    frequency:   15.9123853228
    group_velocity: [    52.9184928,   -52.9184928,    -0.0000000 ]
  - # 2
    frequency:   19.0983939411
    group_velocity: [    75.6881989,   -75.6881989,    -0.0000000 ]
  - # 3
    frequency:   23.0969357800
    group_velocity: [    59.3679716,   -59.3679716,    -0.0000000 ]
  - # 4
    frequency:   35.7732873289
    group_velocity: [   -22.7499929,    22.7499929,     0.0000000 ]
  - # 5
    frequency:   37.0232243698
    group_velocity: [    -2.5038595,     2.5038595,     0.0000000 ]
  - # 6
    frequency:   37.7390764644
    group_velocity: [   -21.3520572,    21.3520572,     0.0000000 ]

- q-position: [    0.1950000,    0.1950000,    0.3900000 ]
  distance:    0.1425478
  band:
  - # 1
    frequency:   15.4616289954
    group_velocity: [    54.4060921,   -54.4060921,    -0.0000000 ]
  - # 2
    frequency:   18.4585253255
    group_velocity: [    76.6659435,   -76.6659435,    -0.0000000 ]
  - # 3
    frequency:   22.5838287395
    group_velocity: [    62.8224925,   -62.8224925,    -0.0000000 ]
  - # 4
    frequency:   35.9639802574
    group_velocity: [   -22.6383728,    22.6383728,     0.0000000 ]
  - # 5
    frequency:   37.0478786333
    group_velocity: [    -3.3769908,     3.3769908,     0.0000000 ]
  - # 6
    frequency:   37.9096989868
    group_velocity: [   -19.2854587,    19.2854587,     0.0000000 ]

- q-position: [    0.1875000,    0.1875000,    0.3750000 ]
  distance:    0.1484873
  band:
  - # 1
    frequency:   14.9984279871
    group_velocity: [    55.8817827,   -55.8817827,    -0.0000000 ]
  - # 2
    frequency:   17.8104752603
    group_velocity: [    77.6349263,   -77.6349263,    -0.0000000 ]
  - # 3
    frequency:   22.0412878639
    group_velocity: [    66.3722145,   -66.3722145,    -0.0000000 ]
  - # 4
    frequency:   36.1533265853
    group_velocity: [   -22.4295694,    22.4295694,     0.0000000 ]
  - # 5
    frequency:   37.0801042840
    group_velocity: [    -4.3030875,     4.3030875,     0.0000000 ]
  - # 6
    frequency:   38.0632688762
    group_velocity: [   -17.2931034,    17.2931034,     0.0000000 ]

- q-position: [    0.1800000,    0.1800000,    0.3600000 ]
  distance:    0.1544268
  band:
  - # 1
    frequency:   14.5228787105
    group_velocity: [    57.3463494,   -57.3463494,    -0.0000000 ]
  - # 2
    frequency:   17.1543506947
    group_velocity: [    78.5871577,   -78.5871577,    -0.0000000 ]
  - # 3
    frequency:   21.4686169034
    group_velocity: [    69.9923941,   -69.9923941,    -0.0000000 ]
  - # 4
    frequency:   36.3405168319
    group_velocity: [   -22.1253994,    22.1253994,     0.0000000 ]
  - # 5
    frequency:   37.1202550783
    group_velocity: [    -5.2602602,     5.2602602,     0.0000000 ]
  - # 6
    frequency:   38.2004424058
    group_velocity: [   -15.3826404,    15.3826404,     0.0000000 ]

- q-position: [    0.1725000,    0.1725000,    0.3450000 ]
  distance:    0.1603663
  band:
  - # 1
    frequency:   14.0350730531
    group_velocity: [    58.8000682,   -58.8000682,    -0.0000000 ]
  - # 2
    frequency:   16.4903265103
    group_velocity: [    79.5144993,   -79.5144993,    -0.0000000 ]
  - # 3
    frequency:   20.8653296001
    group_velocity: [    73.6578785,   -73.6578785,    -0.0000000 ]
  - # 4
    frequency:   36.5247614635
    group_velocity: [   -21.7287819,    21.7287819,     0.0000000 ]
  - # 5
    frequency:   37.1684971173
    group_velocity: [    -6.2258320,     6.2258320,     0.0000000 ]
  - # 6
    frequency:   38.3219369544
    group_velocity: [   -13.5609718,    13.5609718,     0.0000000 ]

- q-position: [    0.1650000,    0.1650000,    0.3300000 ]
  distance:    0.1663057
  band:
  - # 1
    frequency:   13.5351030520
    group_velocity: [    60.2426139,   -60.2426139,    -0.0000000 ]
  - # 2
    frequency:   15.8186455935
    group_velocity: [    80.4089428,   -80.4089428,    -0.0000000 ]
  - # 3
    frequency:   20.2311506384
    group_velocity: [    77.3436825,   -77.3436825,    -0.0000000 ]
  - # 4
    frequency:   36.7052997738
    group_velocity: [   -21.2436442,    21.2436442,     0.0000000 ]
  - # 5
    frequency:   37.2248050643
    group_velocity: [    -7.1770041,     7.1770041,     0.0000000 ]
  - # 6
    frequency:   38.4285247705
    group_velocity: [   -11.8342611,    11.8342611,     0.0000000 ]

- q-position: [    0.1575000,    0.1575000,    0.3150000 ]
  distance:    0.1722452
  band:
  - # 1
    frequency:   13.0230662560
    group_velocity: [    61.6729890,   -61.6729890,    -0.0000000 ]
  - # 2
    frequency:   15.1396166207
    group_velocity: [    81.2628744,   -81.2628744,    -0.0000000 ]
  - # 3
    frequency:   19.5660121699
    group_velocity: [    81.0254622,   -81.0254622,    -0.0000000 ]
  - # 4
    frequency:   36.8814078870
    group_velocity: [   -20.6748078,    20.6748078,     0.0000000 ]
  - # 5
    frequency:   37.2889637021
    group_velocity: [    -8.0914580,     8.0914580,     0.0000000 ]
  - # 6
    frequency:   38.5210267831
    group_velocity: [   -10.2079360,    10.2079360,     0.0000000 ]

- q-position: [    0.1500000,    0.1500000,    0.3000000 ]
  distance:    0.1781847
  band:
  - # 1
    frequency:   12.4990716028
    group_velocity: [    63.0894726,   -63.0894726,    -0.0000000 ]
  - # 2
    frequency:   14.4536096948
    group_velocity: [    82.0693209,   -82.0693209,    -0.0000000 ]
  - # 3
    frequency:   18.8700468367
    group_velocity: [    84.6798741,   -84.6798741,    -0.0000000 ]
  - # 4
    frequency:   37.0524057238
    group_velocity: [   -20.0278562,    20.0278562,     0.0000000 ]
  - # 5
    frequency:   37.3605742142
    group_velocity: [    -8.9478762,     8.9478762,     0.0000000 ]
  - # 6
    frequency:   38.6003064128
    group_velocity: [    -8.6866849,     8.6866849,     0.0000000 ]

- q-position: [    0.1425000,    0.1425000,    0.2850000 ]
  distance:    0.1841242
  band:
  - # 1
    frequency:   11.9632456275
    group_velocity: [    64.4895930,   -64.4895930,    -0.0000000 ]
  - # 2
    frequency:   13.7610500256
    group_velocity: [    82.8221687,   -82.8221687,    -0.0000000 ]
  - # 3
    frequency:   18.1435782632
    group_velocity: [    88.2848202,   -88.2848202,    -0.0000000 ]
  - # 4
    frequency:   37.2176628034
    group_velocity: [   -19.3089904,    19.3089904,     0.0000000 ]
  - # 5
    frequency:   37.4390644787
    group_velocity: [    -9.7263768,     9.7263768,     0.0000000 ]
  - # 6
    frequency:   38.6672633242
    group_velocity: [    -7.2744469,     7.2744469,     0.0000000 ]

- q-position: [    0.1350000,    0.1350000,    0.2700000 ]
  distance:    0.1900637
  band:
  - # 1
    frequency:   11.4157388049
    group_velocity: [    65.8701229,   -65.8701229,    -0.0000000 ]
  - # 2
    frequency:   13.0624098965
    group_velocity: [    83.5163511,   -83.5163511,    -0.0000000 ]
  - # 3
    frequency:   17.3871099284
    group_velocity: [    91.8195904,   -91.8195904,    -0.0000000 ]
  - # 4
    frequency:   37.3766027878
    group_velocity: [   -18.5248747,    18.5248747,     0.0000000 ]
  - # 5
    frequency:   37.5237026572
    group_velocity: [   -10.4088647,    10.4088647,     0.0000000 ]
  - # 6
    frequency:   38.7228270648
    group_velocity: [    -5.9743947,     5.9743947,     0.0000000 ]

- q-position: [    0.1275000,    0.1275000,    0.2550000 ]
  distance:    0.1960032
  band:
  - # 1
    frequency:   10.8567318345
    group_velocity: [    67.2270982,   -67.2270982,    -0.0000000 ]
  - # 2
    frequency:   12.3581992077
    group_velocity: [    84.1479999,   -84.1479999,    -0.0000000 ]
  - # 3
    frequency:   16.6013132135
    group_velocity: [    95.2649202,   -95.2649202,    -0.0000000 ]
  - # 4
    frequency:   37.5287067102
    group_velocity: [   -17.6824786,    17.6824786,     0.0000000 ]
  - # 5
    frequency:   37.6136134125
    group_velocity: [   -10.9793077,    10.9793077,     0.0000000 ]
  - # 6
    frequency:   38.7679505266
    group_velocity: [    -4.7889095,     4.7889095,     0.0000000 ]

- q-position: [    0.1200000,    0.1200000,    0.2400000 ]
  distance:    0.2019427
  band:
  - # 1
    frequency:   10.2864416727
    group_velocity: [    68.5558586,   -68.5558586,    -0.0000000 ]
  - # 2
    frequency:   11.6489549249
    group_velocity: [    84.7145536,   -84.7145536,    -0.0000000 ]
  - # 3
    frequency:   15.7870152532
    group_velocity: [    98.6029831,   -98.6029831,    -0.0000000 ]
  - # 4
    frequency:   37.6735148654
    group_velocity: [   -16.7889166,    16.7889166,     0.0000000 ]
  - # 5
    frequency:   37.7077961679
    group_velocity: [   -11.4239487,    11.4239487,     0.0000000 ]
  - # 6
    frequency:   38.8036031752
    group_velocity: [    -3.7195505,     3.7195505,     0.0000000 ]

- q-position: [    0.1125000,    0.1125000,    0.2250000 ]
  distance:    0.2078822
  band:
  - # 1
    frequency:    9.7051271333
    group_velocity: [    69.8511098,   -69.8511098,    -0.0000000 ]
  - # 2
    frequency:   10.9352297951
    group_velocity: [    85.2148231,   -85.2148231,    -0.0000000 ]
  - # 3
    frequency:   14.9451870495
    group_velocity: [   101.8173390,  -101.8173390,    -0.0000000 ]
  - # 4
    frequency:   37.8051449161
    group_velocity: [   -11.7314637,    11.7314637,     0.0000000 ]
  - # 5
    frequency:   37.8106273724
    group_velocity: [   -15.8512930,    15.8512930,     0.0000000 ]
  - # 6
    frequency:   38.8307639955
    group_velocity: [    -2.7670186,     2.7670186,     0.0000000 ]

- q-position: [    0.1050000,    0.1050000,    0.2100000 ]
  distance:    0.2138217
  band:
  - # 1
    frequency:    9.1130938876
    group_velocity: [    71.1070041,   -71.1070041,    -0.0000000 ]
  - # 2
    frequency:   10.2175807131
    group_velocity: [    85.6490088,   -85.6490088,    -0.0000000 ]
  - # 3
    frequency:   14.0769321411
    group_velocity: [   104.8928564,  -104.8928564,    -0.0000000 ]
  - # 4
    frequency:   37.9044691606
    group_velocity: [   -11.8930751,    11.8930751,     0.0000000 ]
  - # 5
    frequency:   37.9397034548
    group_velocity: [   -14.8765526,    14.8765526,     0.0000000 ]
  - # 6
    frequency:   38.8504141145
    group_velocity: [    -1.9311162,     1.9311162,     0.0000000 ]

- q-position: [    0.0975000,    0.0975000,    0.1950000 ]
  distance:    0.2197612
  band:
  - # 1
    frequency:    8.5106987166
    group_velocity: [    72.3172374,   -72.3172374,    -0.0000000 ]
  - # 2
    frequency:    9.4965571369
    group_velocity: [    86.0186721,   -86.0186721,    -0.0000000 ]
  - # 3
    frequency:   13.1834759804
    group_velocity: [   107.8156238,  -107.8156238,    -0.0000000 ]
  - # 4
    frequency:   38.0045156442
    group_velocity: [   -11.9026263,    11.9026263,     0.0000000 ]
  - # 5
    frequency:   38.0604595177
    group_velocity: [   -13.8713438,    13.8713438,     0.0000000 ]
  - # 6
    frequency:   38.8635290808
    group_velocity: [    -1.2107058,     1.2107058,     0.0000000 ]

- q-position: [    0.0900000,    0.0900000,    0.1800000 ]
  distance:    0.2257007
  band:
  - # 1
    frequency:    7.8983528886
    group_velocity: [    73.4751595,   -73.4751595,    -0.0000000 ]
  - # 2
    frequency:    8.7726899500
    group_velocity: [    86.3266579,   -86.3266579,    -0.0000000 ]
  - # 3
    frequency:   12.2661560555
    group_velocity: [   110.5728624,  -110.5728624,    -0.0000000 ]
  - # 4
    frequency:   38.1039905550
    group_velocity: [   -11.7566216,    11.7566216,     0.0000000 ]
  - # 5
    frequency:   38.1726661243
    group_velocity: [   -12.8418943,    12.8418943,     0.0000000 ]
  - # 6
    frequency:   38.8710707999
    group_velocity: [    -0.6036701,     0.6036701,     0.0000000 ]

- q-position: [    0.0825000,    0.0825000,    0.1650000 ]
  distance:    0.2316401
  band:
  - # 1
    frequency:    7.2765245612
    group_velocity: [    74.5738958,   -74.5738958,    -0.0000000 ]
  - # 2
    frequency:    8.0464811589
    group_velocity: [    86.5769729,   -86.5769729,    -0.0000000 ]
  - # 3
    frequency:   11.3264127151
    group_velocity: [   113.1528476,  -113.1528476,    -0.0000000 ]
  - # 4
    frequency:   38.2015819315