nqpoint: 357    
npath: 7      
segment_nqpoint:
- 51
- 51
- 51
- 51
- 51
- 51
- 51
reciprocal_lattice:
- [  -0.15739603,   0.15739603,   0.15739603 ] # a*
- [   0.15739603,  -0.15739603,   0.15739603 ] # b*
- [   0.15739603,   0.15739603,  -0.15739603 ] # c*
natom: 3      
lattice:
- [     0.0000000000000000,     3.1767001152000001,     3.1767001152000001 ] # a
- [     3.1767001152000001,     0.0000000000000000,     3.1767001152000001 ] # b
- [     3.1767001152000001,     3.1767001152000001,     0.0000000000000000 ] # c
atoms:
- symbol: Mg # 1
  position: [  0.7500000000000000,  0.7500000000000000,  0.7500000000000000 ]
  mass: 24.305000
- symbol: Mg # 2
  position: [  0.2500000000000000,  0.2500000000000000,  0.2500000000000000 ]
  mass: 24.305000
- symbol: Si # 3
  position: [  0.0000000000000000,  0.0000000000000000,  0.0000000000000000 ]
  mass: 28.085500
supercell_matrix:
- [   -4,    4,    4 ]
- [    4,   -4,    4 ]
- [    4,    4,   -4 ]

phonon:
- q-position: [    0.3750000,    0.3750000,    0.7500000 ]
  distance:    0.0000000
  band:
  - # 1
    frequency:    4.4628577835
    group_velocity: [     4.5800013,     4.5800013,    -0.0000000 ]
  - # 2
    frequency:    5.0606720849
    group_velocity: [     4.6940417,     4.6940417,    -0.0000000 ]
  - # 3
    frequency:    5.0751893809
    group_velocity: [    -7.0955702,    -7.0955702,    -0.0000000 ]
  - # 4
    frequency:    5.2038843142
    group_velocity: [    -9.3806589,    -9.3806589,     0.0000000 ]
  - # 5
    frequency:    5.9592078840
    group_velocity: [   -13.6382989,   -13.6382989,     0.0000000 ]
  - # 6
    frequency:    8.4393563995
    group_velocity: [    -4.0402856,    -4.0402856,     0.0000000 ]
  - # 7
    frequency:    8.5772284113
    group_velocity: [    15.6327803,    15.6327803,    -0.0000000 ]
  - # 8
    frequency:    8.7234190191
    group_velocity: [     4.5378444,     4.5378444,    -0.0000000 ]
  - # 9
    frequency:    9.4153042593
    group_velocity: [     1.7168226,     1.7168226,     0.0000000 ]

- q-position: [    0.3675000,    0.3675000,    0.7350000 ]
  distance:    0.0033389
  band:
  - # 1
    frequency:    4.4406582658
    group_velocity: [     4.8258480,     4.8258480,     0.0000000 ]
  - # 2
    frequency:    5.0363250733
    group_velocity: [     5.6197316,     5.6197316,    -0.0000000 ]
  - # 3
    frequency:    5.1097322397
    group_velocity: [    -7.5350224,    -7.5350224,    -0.0000000 ]
  - # 4
    frequency:    5.2491439490
    group_velocity: [    -9.7866215,    -9.7866215,     0.0000000 ]
  - # 5
    frequency:    6.0221705269
    group_velocity: [   -13.0237303,   -13.0237303,     0.0000000 ]
  - # 6
    frequency:    8.4577683045
    group_velocity: [    -3.7527989,    -3.7527989,    -0.0000000 ]
  - # 7
    frequency:    8.5001679620
    group_velocity: [    16.9727744,    16.9727744,     0.0000000 ]
  - # 8
    frequency:    8.7020457743
    group_velocity: [     4.5057692,     4.5057692,    -0.0000000 ]
  - # 9
    frequency:    9.4108914445
    group_velocity: [     0.1779621,     0.1779621,     0.0000000 ]

- q-position: [    0.3600000,    0.3600000,    0.7200000 ]
  distance:    0.0066777
  band:
  - # 1
    frequency:    4.4172518433
    group_velocity: [     5.0918691,     5.0918691,     0.0000000 ]
  - # 2
    frequency:    5.0075993011
    group_velocity: [     6.5463248,     6.5463248,    -0.0000000 ]
  - # 3
    frequency:    5.1463443712
    group_velocity: [    -7.9719504,    -7.9719504,    -0.0000000 ]
  - # 4
    frequency:    5.2962801209
    group_velocity: [   -10.1756084,   -10.1756084,     0.0000000 ]
  - # 5
    frequency:    6.0821684091
    group_velocity: [   -12.3884560,   -12.3884560,     0.0000000 ]
  - # 6
    frequency:    8.4172357114
    group_velocity: [    18.1264526,    18.1264526,    -0.0000000 ]
  - # 7
    frequency:    8.4747518195
    group_velocity: [    -3.4366436,    -3.4366436,     0.0000000 ]
  - # 8
    frequency:    8.6809576103
    group_velocity: [     4.4165382,     4.4165382,    -0.0000000 ]
  - # 9
    frequency:    9.4133772348
    group_velocity: [    -1.2048610,    -1.2048610,    -0.0000000 ]

- q-position: [    0.3525000,    0.3525000,    0.7050000 ]
  distance:    0.0100166
  band:
  - # 1
    frequency:    4.3925341520
    group_velocity: [     5.3818332,     5.3818332,     0.0000000 ]
  - # 2
    frequency:    4.9745235534
    group_velocity: [     7.4599831,     7.4599831,     0.0000000 ]
  - # 3
    frequency:    5.1850126425
    group_velocity: [    -8.4058257,    -8.4058257,    -0.0000000 ]
  - # 4
    frequency:    5.3452143978
    group_velocity: [   -10.5483438,   -10.5483438,    -0.0000000 ]
  - # 5
    frequency:    6.1391853028
    group_velocity: [   -11.7664616,   -11.7664616,    -0.0000000 ]
  - # 6
    frequency:    8.3292088719
    group_velocity: [    19.1385642,    19.1385642,     0.0000000 ]
  - # 7
    frequency:    8.4901908465
    group_velocity: [    -3.0999569,    -3.0999569,    -0.0000000 ]
  - # 8
    frequency:    8.6604315781
    group_velocity: [     4.2672821,     4.2672821,    -0.0000000 ]
  - # 9
    frequency:    9.4220289142
    group_velocity: [    -2.4346361,    -2.4346361,    -0.0000000 ]

- q-position: [    0.3450000,    0.3450000,    0.6900000 ]
  distance:    0.0133555
  band:
  - # 1
    frequency:    4.3663842942
    group_velocity: [     5.6989690,     5.6989690,     0.0000000 ]
  - # 2
    frequency:    4.9371895589
    group_velocity: [     8.3479093,     8.3479093,    -0.0000000 ]
  - # 3
    frequency:    5.2257212189
    group_velocity: [    -8.8360317,    -8.8360317,     0.0000000 ]
  - # 4
    frequency:    5.3958716378
    group_velocity: [   -10.9054896,   -10.9054896,     0.0000000 ]
  - # 5
    frequency:    6.1933555511
    group_velocity: [   -11.1870979,   -11.1870979,    -0.0000000 ]
  - # 6
    frequency:    8.2366462014
    group_velocity: [    20.0547287,    20.0547287,    -0.0000000 ]
  - # 7
    frequency:    8.5040072081
    group_velocity: [    -2.7506343,    -2.7506343,     0.0000000 ]
  - # 8
    frequency:    8.6407556162
    group_velocity: [     4.0563213,     4.0563213,    -0.0000000 ]
  - # 9
    frequency:    9.4361367452
    group_velocity: [    -3.5164628,    -3.5164628,    -0.0000000 ]

- q-position: [    0.3375000,    0.3375000,    0.6750000 ]
  distance:    0.0166944
  band:
  - # 1
    frequency:    4.3386674552
    group_velocity: [     6.0459398,     6.0459398,     0.0000000 ]
  - # 2
    frequency:    4.8957467448
    group_velocity: [     9.1984823,     9.1984823,    -0.0000000 ]
  - # 3
    frequency:    5.2684511357
    group_velocity: [    -9.2618583,    -9.2618583,    -0.0000000 ]
  - # 4
    frequency:    5.4481795945
    group_velocity: [   -11.2476036,   -11.2476036,     0.0000000 ]
  - # 5
    frequency:    6.2449360725
    group_velocity: [   -10.6725278,   -10.6725278,     0.0000000 ]
  - # 6
    frequency:    8.1399087108
    group_velocity: [    20.9120684,    20.9120684,    -0.0000000 ]
  - # 7
    frequency:    8.5161591102
    group_velocity: [    -2.3961648,    -2.3961648,     0.0000000 ]
  - # 8
    frequency:    8.6222220673
    group_velocity: [     3.7835267,     3.7835267,     0.0000000 ]
  - # 9
    frequency:    9.4550064609
    group_velocity: [    -4.4512907,    -4.4512907,    -0.0000000 ]

- q-position: [    0.3300000,    0.3300000,    0.6600000 ]
  distance:    0.0200332
  band:
  - # 1
    frequency:    4.3092376024
    group_velocity: [     6.4248330,     6.4248330,     0.0000000 ]
  - # 2
    frequency:    4.8503963942
    group_velocity: [    10.0013805,    10.0013805,    -0.0000000 ]
  - # 3
    frequency:    5.3131798432
    group_velocity: [    -9.6824960,    -9.6824960,    -0.0000000 ]
  - # 4
    frequency:    5.5020683352
    group_velocity: [   -11.5751023,   -11.5751023,     0.0000000 ]
  - # 5
    frequency:    6.2942670318
    group_velocity: [   -10.2355217,   -10.2355217,     0.0000000 ]
  - # 6
    frequency:    8.0392104253
    group_velocity: [    21.7354097,    21.7354097,    -0.0000000 ]
  - # 7
    frequency:    8.5266388729
    group_velocity: [    -2.0434862,    -2.0434862,     0.0000000 ]
  - # 8
    frequency:    8.6051196035
    group_velocity: [     3.4506268,     3.4506268,    -0.0000000 ]
  - # 9
    frequency:    9.4779360690
    group_velocity: [    -5.2350478,    -5.2350478,    -0.0000000 ]

- q-position: [    0.3225000,    0.3225000,    0.6450000 ]
  distance:    0.0233721
  band:
  - # 1
    frequency:    4.2779402073
    group_velocity: [     6.8371606,     6.8371606,    -0.0000000 ]
  - # 2
    frequency:    4.8013851890
    group_velocity: [    10.7477222,    10.7477222,    -0.0000000 ]
  - # 3
    frequency:    5.3598807225
    group_velocity: [   -10.0970296,   -10.0970296,     0.0000000 ]
  - # 4
    frequency:    5.5574694971
    group_velocity: [   -11.8882297,   -11.8882297,     0.0000000 ]
  - # 5
    frequency:    6.3417232773
    group_velocity: [    -9.8777559,    -9.8777559,    -0.0000000 ]
  - # 6
    frequency:    7.9346789749
    group_velocity: [    22.5365351,    22.5365351,    -0.0000000 ]
  - # 7
    frequency:    8.5354700223
    group_velocity: [    -1.6988594,    -1.6988594,     0.0000000 ]
  - # 8
    frequency:    8.5897238983
    group_velocity: [     3.0614266,     3.0614266,    -0.0000000 ]
  - # 9
    frequency:    9.5041957744
    group_velocity: [    -5.8604374,    -5.8604374,     0.0000000 ]

- q-position: [    0.3150000,    0.3150000,    0.6300000 ]
  distance:    0.0267110
  band:
  - # 1
    frequency:    4.2446149413
    group_velocity: [     7.2838695,     7.2838695,     0.0000000 ]
  - # 2
    frequency:    4.7489980125
    group_velocity: [    11.4302416,    11.4302416,    -0.0000000 ]
  - # 3
    frequency:    5.4085225686
    group_velocity: [   -10.5044310,   -10.5044310,    -0.0000000 ]
  - # 4
    frequency:    5.6143154127
    group_velocity: [   -12.1870326,   -12.1870326,     0.0000000 ]
  - # 5
    frequency:    6.3876586857
    group_velocity: [    -9.5884429,    -9.5884429,    -0.0000000 ]
  - # 6
    frequency:    7.8264165856
    group_velocity: [    23.3144637,    23.3144637,    -0.0000000 ]
  - # 7
    frequency:    8.5427038408
    group_velocity: [    -1.3677645,    -1.3677645,     0.0000000 ]
  - # 8
    frequency:    8.5762875274
    group_velocity: [     2.6219110,     2.6219110,     0.0000000 ]
  - # 9
    frequency:    9.5330187708
    group_velocity: [    -6.3195050,    -6.3195050,     0.0000000 ]

- q-position: [    0.3075000,    0.3075000,    0.6150000 ]
  distance:    0.0300499
  band:
  - # 1
    frequency:    4.2090983060
    group_velocity: [     7.7653591,     7.7653591,    -0.0000000 ]
  - # 2
    frequency:    4.6935498186
    group_velocity: [    12.0435076,    12.0435076,    -0.0000000 ]
  - # 3
    frequency:    5.4590690470
    group_velocity: [   -10.9035547,   -10.9035547,     0.0000000 ]
  - # 4
    frequency:    5.6725381359
    group_velocity: [   -12.4713439,   -12.4713439,     0.0000000 ]
  - # 5
    frequency:    6.4323435037
    group_velocity: [    -9.3425410,    -9.3425410,     0.0000000 ]
  - # 6
    frequency:    7.7145607245
    group_velocity: [    24.0550168,    24.0550168,     0.0000000 ]
  - # 7
    frequency:    8.5484154800
    group_velocity: [    -1.0548195,    -1.0548195,    -0.0000000 ]
  - # 8
    frequency:    8.5650296864
    group_velocity: [     2.1402175,     2.1402175,     0.0000000 ]
  - # 9
    frequency:    9.5636037595
    group_velocity: [    -6.6059228,    -6.6059228,    -0.0000000 ]

- q-position: [    0.3000000,    0.3000000,    0.6000000 ]
  distance:    0.0333887
  band:
  - # 1
    frequency:    4.1712261626
    group_velocity: [     8.2815059,     8.2815059,     0.0000000 ]
  - # 2
    frequency:    4.6353763792
    group_velocity: [    12.5841779,    12.5841779,    -0.0000000 ]
  - # 3
    frequency:    5.5114781284
    group_velocity: [   -11.2931339,   -11.2931339,     0.0000000 ]
  - # 4
    frequency:    5.7320684025
    group_velocity: [   -12.7407715,   -12.7407715,     0.0000000 ]
  - # 5
    frequency:    6.4758888763
    group_velocity: [    -9.0966487,    -9.0966487,    -0.0000000 ]
  - # 6
    frequency:    7.5993526948
    group_velocity: [    24.7273900,    24.7273900,     0.0000000 ]
  - # 7
    frequency:    8.5526997435
    group_velocity: [    -0.7637228,    -0.7637228,    -0.0000000 ]
  - # 8
    frequency:    8.5561263582
    group_velocity: [     1.6264741,     1.6264741,    -0.0000000 ]
  - # 9
    frequency:    9.5951266383
    group_velocity: [    -6.7165522,    -6.7165522,    -0.0000000 ]

- q-position: [    0.2925000,    0.2925000,    0.5850000 ]
  distance:    0.0367276
  band:
  - # 1
    frequency:    4.1308361298
    group_velocity: [     8.8316948,     8.8316948,    -0.0000000 ]
  - # 2
    frequency:    4.5748237881
    group_velocity: [    13.0512670,    13.0512670,    -0.0000000 ]
  - # 3
    frequency:    5.5657015161
    group_velocity: [   -11.6717810,   -11.6717810,     0.0000000 ]
  - # 4
    frequency:    5.7928345619
    group_velocity: [   -12.9946967,   -12.9946967,     0.0000000 ]
  - # 5
    frequency:    6.5181382996
    group_velocity: [    -8.7779136,    -8.7779136,    -0.0000000 ]
  - # 6
    frequency:    7.4812377948
    group_velocity: [    25.2730407,    25.2730407,     0.0000000 ]
  - # 7
    frequency:    8.5497015412
    group_velocity: [     1.0925144,     1.0925144,    -0.0000000 ]
  - # 8
    frequency:    8.5556666573
    group_velocity: [    -0.4972203,    -0.4972203,    -0.0000000 ]
  - # 9
    frequency:    9.6267576653
    group_velocity: [    -6.6522092,    -6.6522092,    -0.0000000 ]

- q-position: [    0.2850000,    0.2850000,    0.5700000 ]
  distance:    0.0400665
  band:
  - # 1
    frequency:    4.0877698183
    group_velocity: [     9.4148569,     9.4148569,     0.0000000 ]
  - # 2
    frequency:    4.5122367305
    group_velocity: [    13.4463948,    13.4463948,    -0.0000000 ]
  - # 3
    frequency:    5.6216840804
    group_velocity: [   -12.0379904,   -12.0379904,    -0.0000000 ]
  - # 4
    frequency:    5.8547615114
    group_velocity: [   -13.2322774,   -13.2322774,     0.0000000 ]
  - # 5
    frequency:    6.5584681577
    group_velocity: [    -8.2532298,    -8.2532298,    -0.0000000 ]
  - # 6
    frequency:    7.3610578278
    group_velocity: [    25.5743346,    25.5743346,    -0.0000000 ]
  - # 7
    frequency:    8.5458200787
    group_velocity: [     0.5514890,     0.5514890,    -0.0000000 ]
  - # 8
    frequency:    8.5574369441
    group_velocity: [    -0.2570978,    -0.2570978,     0.0000000 ]
  - # 9
    frequency:    9.6576805818
    group_velocity: [    -6.4177579,    -6.4177579,    -0.0000000 ]

- q-position: [    0.2775000,    0.2775000,    0.5550000 ]
  distance:    0.0434054
  band:
  - # 1
    frequency:    4.0418748718
    group_velocity: [    10.0295134,    10.0295134,    -0.0000000 ]
  - # 2
    frequency:    4.4479457054
    group_velocity: [    13.7739744,    13.7739744,    -0.0000000 ]
  - # 3
    frequency:    5.6793633196
    group_velocity: [   -12.3901469,   -12.3901469,     0.0000000 ]
  - # 4
    frequency:    5.9177696677
    group_velocity: [   -13.4524602,   -13.4524602,     0.0000000 ]
  - # 5
    frequency:    6.5953301723
    group_velocity: [    -7.2401182,    -7.2401182,     0.0000000 ]
  - # 6
    frequency:    7.2405051175
    group_velocity: [    25.3645685,    25.3645685,     0.0000000 ]
  - # 7
    frequency:    8.5444825020
    group_velocity: [     0.0174061,     0.0174061,     0.0000000 ]
  - # 8
    frequency:    8.5581375248
    group_velocity: [    -0.0441997,    -0.0441997,    -0.0000000 ]
  - # 9
    frequency:    9.6871109618
    group_velocity: [    -6.0217241,    -6.0217241,    -0.0000000 ]

- q-position: [    0.2700000,    0.2700000,    0.5400000 ]
  distance:    0.0467442
  band:
  - # 1
    frequency:    3.9930067868
    group_velocity: [    10.6738259,    10.6738259,     0.0000000 ]
  - # 2
    frequency:    4.3822535809
    group_velocity: [    14.0413000,    14.0413000,    -0.0000000 ]
  - # 3
    frequency:    5.7386688687
    group_velocity: [   -12.7265374,   -12.7265374,     0.0000000 ]
  - # 4
    frequency:    5.9817740055
    group_velocity: [   -13.6539969,   -13.6539969,     0.0000000 ]
  - # 5
    frequency:    6.6250281315
    group_velocity: [    -5.0399364,    -5.0399364,    -0.0000000 ]
  - # 6
    frequency:    7.1233465897
    group_velocity: [    23.9602267,    23.9602267,     0.0000000 ]
  - # 7
    frequency:    8.5456221535
    group_velocity: [    -0.4953687,    -0.4953687,    -0.0000000 ]
  - # 8
    frequency:    8.5578971641
    group_velocity: [     0.1415281,     0.1415281,     0.0000000 ]
  - # 9
    frequency:    9.7143120030
    group_velocity: [    -5.4756275,    -5.4756275,    -0.0000000 ]

- q-position: [    0.2625000,    0.2625000,    0.5250000 ]
  distance:    0.0500831
  band:
  - # 1
    frequency:    3.9410304843
    group_velocity: [    11.3456504,    11.3456504,     0.0000000 ]
  - # 2
    frequency:    4.3154220487
    group_velocity: [    14.2584970,    14.2584970,    -0.0000000 ]
  - # 3
    frequency:    5.7995220756
    group_velocity: [   -13.0453681,   -13.0453681,     0.0000000 ]
  - # 4
    frequency:    6.0466831904
    group_velocity: [   -13.8354677,   -13.8354677,    -0.0000000 ]
  - # 5
    frequency:    6.6383734855
    group_velocity: [     0.1056191,     0.1056191,    -0.0000000 ]
  - # 6
    frequency:    7.0187733908
    group_velocity: [    19.6165939,    19.6165939,    -0.0000000 ]
  - # 7
    frequency:    8.5491046987
    group_velocity: [    -0.9726193,    -0.9726193,    -0.0000000 ]
  - # 8
    frequency:    8.5568423761
    group_velocity: [     0.3009718,     0.3009718,     0.0000000 ]
  - # 9
    frequency:    9.7386068174
    group_velocity: [    -4.7931904,    -4.7931904,    -0.0000000 ]

- q-position: [    0.2550000,    0.2550000,    0.5100000 ]
  distance:    0.0534220
  band:
  - # 1
    frequency:    3.8858216141
    group_velocity: [    12.0425965,    12.0425965,     0.0000000 ]
  - # 2
    frequency:    4.2476586850
    group_velocity: [    14.4383119,    14.4383119,    -0.0000000 ]
  - # 3
    frequency:    5.8618356662
    group_velocity: [   -13.3447848,   -13.3447848,    -0.0000000 ]
  - # 4
    frequency:    6.1123988301
    group_velocity: [   -13.9953077,   -13.9953077,     0.0000000 ]
  - # 5
    frequency:    6.6156763911
    group_velocity: [    10.2777024,    10.2777024,    -0.0000000 ]
  - # 6
    frequency:    6.9464189015
    group_velocity: [    10.2638385,    10.2638385,     0.0000000 ]
  - # 7
    frequency:    8.5547299917
    group_velocity: [    -1.4007646,    -1.4007646,    -0.0000000 ]
  - # 8
    frequency:    8.5550936944
    group_velocity: [     0.4357624,     0.4357624,     0.0000000 ]
  - # 9
    frequency:    9.7593869294
    group_velocity: [    -3.9895375,    -3.9895375,    -0.0000000 ]

- q-position: [    0.2475000,    0.2475000,    0.4950000 ]
  distance:    0.0567609
  band:
  - # 1
    frequency:    3.8272675767
    group_velocity: [    12.7620877,    12.7620877,    -0.0000000 ]
  - # 2
    frequency:    4.1791054045
    group_velocity: [    14.5957327,    14.5957327,    -0.0000000 ]
  - # 3
    frequency:    5.9255135161
    group_velocity: [   -13.6228972,   -13.6228972,     0.0000000 ]
  - # 4
    frequency:    6.1788148636
    group_velocity: [   -14.1318390,   -14.1318390,     0.0000000 ]
  - # 5
    frequency:    6.5406108294
    group_velocity: [    20.8603351,    20.8603351,    -0.0000000 ]
  - # 6
    frequency:    6.9225056211
    group_velocity: [     0.5264808,     0.5264808,    -0.0000000 ]
  - # 7
    frequency:    8.5527623961
    group_velocity: [     0.5481707,     0.5481707,    -0.0000000 ]
  - # 8
    frequency:    8.5622361399
    group_velocity: [    -1.7673017,    -1.7673017,     0.0000000 ]
  - # 9
    frequency:    9.7761171261
    group_velocity: [    -3.0804609,    -3.0804609,     0.0000000 ]

- q-position: [    0.2400000,    0.2400000,    0.4800000 ]
  distance:    0.0600997
  band:
  - # 1
    frequency:    3.7652682601
    group_velocity: [    13.5014212,    13.5014212,    -0.0000000 ]
  - # 2
    frequency:    4.1098290895
    group_velocity: [    14.7474504,    14.7474504,    -0.0000000 ]
  - # 3
    frequency:    5.9904505439
    group_velocity: [   -13.8778064,   -13.8778064,     0.0000000 ]
  - # 4
    frequency:    6.2458171026
    group_velocity: [   -14.2433031,   -14.2433031,     0.0000000 ]
  - # 5
    frequency:    6.4266146651
    group_velocity: [    26.7089271,    26.7089271,    -0.0000000 ]
  - # 6
    frequency:    6.9334590094
    group_velocity: [    -4.4454172,    -4.4454172,     0.0000000 ]
  - # 7
    frequency:    8.5499477551
    group_velocity: [     0.6409893,     0.6409893,    -0.0000000 ]
  - # 8
    frequency:    8.5713055311
    group_velocity: [    -2.0611920,    -2.0611920,     0.0000000 ]
  - # 9
    frequency:    9.7883370809
    group_velocity: [    -2.0817934,    -2.0817934,     0.0000000 ]

- q-position: [    0.2325000,    0.2325000,    0.4650000 ]
  distance:    0.0634386
  band:
  - # 1
    frequency:    3.6997364983
    group_velocity: [    14.2578254,    14.2578254,    -0.0000000 ]
  - # 2
    frequency:    4.0398150865
    group_velocity: [    14.9111888,    14.9111888,    -0.0000000 ]
  - # 3
    frequency:    6.0565327356
    group_velocity: [   -14.1076329,   -14.1076329,     0.0000000 ]
  - # 4
    frequency:    6.2929768185
    group_velocity: [    29.5900487,    29.5900487,    -0.0000000 ]
  - # 5
    frequency:    6.3132829376
    group_velocity: [   -14.3278974,   -14.3278974,     0.0000000 ]
  - # 6
    frequency:    6.9598350646
    group_velocity: [    -6.4160965,    -6.4160965,     0.0000000 ]
  - # 7
    frequency:    8.5467348754
    group_velocity: [     0.7174060,     0.7174060,    -0.0000000 ]
  - # 8
    frequency:    8.5815725314
    group_velocity: [    -2.2731820,    -2.2731820,     0.0000000 ]
  - # 9
    frequency:    9.7956603253
    group_velocity: [    -1.0089150,    -1.0089150,     0.0000000 ]

- q-position: [    0.2250000,    0.2250000,    0.4500000 ]
  distance:    0.0667775
  band:
  - # 1
    frequency:    3.6305982706
    group_velocity: [    15.0285123,    15.0285123,    -0.0000000 ]
  - # 2
    frequency:    3.9689640958
    group_velocity: [    15.1049454,    15.1049454,    -0.0000000 ]
  - # 3
    frequency:    6.1236373089
    group_velocity: [   -14.3105470,   -14.3105470,     0.0000000 ]
  - # 4
    frequency:    6.1490332789
    group_velocity: [    31.2544266,    31.2544266,    -0.0000000 ]
  - # 5
    frequency:    6.3810812123
    group_velocity: [   -14.3838107,   -14.3838107,     0.0000000 ]
  - # 6
    frequency:    6.9921389275
    group_velocity: [    -7.1369725,    -7.1369725,     0.0000000 ]
  - # 7
    frequency:    8.5431931343
    group_velocity: [     0.7808722,     0.7808722,    -0.0000000 ]
  - # 8
    frequency:    8.5926325436
    group_velocity: [    -2.3960591,    -2.3960591,     0.0000000 ]
  - # 9
    frequency:    9.7977712290
    group_velocity: [     0.1235956,     0.1235956,    -0.0000000 ]

- q-position: [    0.2175000,    0.2175000,    0.4350000 ]
  distance:    0.0701164
  band:
  - # 1
    frequency:    3.5577926729
    group_velocity: [    15.8107209,    15.8107209,    -0.0000000 ]
  - # 2
    frequency:    3.8970927525
    group_velocity: [    15.3461969,    15.3461969,    -0.0000000 ]
  - # 3
    frequency:    5.9986098811
    group_velocity: [    32.4028459,    32.4028459,    -0.0000000 ]
  - # 4
    frequency:    6.1916330141
    group_velocity: [   -14.4847969,   -14.4847969,     0.0000000 ]
  - # 5
    frequency:    6.4490722698
    group_velocity: [   -14.4092594,   -14.4092594,     0.0000000 ]
  - # 6
    frequency:    7.0263957145
    group_velocity: [    -7.3122386,    -7.3122386,     0.0000000 ]
  - # 7
    frequency:    8.5393752433
    group_velocity: [     0.8349743,     0.8349743,    -0.0000000 ]
  - # 8
    frequency:    8.6040521178
    group_velocity: [    -2.4248416,    -2.4248416,     0.0000000 ]
  - # 9
    frequency:    9.7944206849
    group_velocity: [     1.3021614,     1.3021614,    -0.0000000 ]

- q-position: [    0.2100000,    0.2100000,    0.4200000 ]
  distance:    0.0734552
  band:
  - # 1
    frequency:    3.4812717009
    group_velocity: [    16.6017532,    16.6017532,    -0.0000000 ]
  - # 2
    frequency:    3.8239379359
    group_velocity: [    15.6511236,    15.6511236,    -0.0000000 ]
  - # 3
    frequency:    5.8434022827
    group_velocity: [    33.3092931,    33.3092931,    -0.0000000 ]
  - # 4
    frequency:    6.2603805700
    group_velocity: [   -14.6287367,   -14.6287367,     0.0000000 ]
  - # 5
    frequency:    6.5171081658
    group_velocity: [   -14.4025227,   -14.4025227,     0.0000000 ]
  - # 6
    frequency:    7.0607823851
    group_velocity: [    -7.2215653,    -7.2215653,     0.0000000 ]
  - # 7
    frequency:    8.5353169088
    group_velocity: [     0.8833085,     0.8833085,    -0.0000000 ]
  - # 8
    frequency:    8.6153798196
    group_velocity: [    -2.3569108,    -2.3569108,     0.0000000 ]
  - # 9
    frequency:    9.7854211991
    group_velocity: [     2.5142598,     2.5142598,    -0.0000000 ]

- q-position: [    0.2025000,    0.2025000,    0.4050000 ]
  distance:    0.0767941
  band:
  - # 1
    frequency:    3.4009998952
    group_velocity: [    17.3989968,    17.3989968,    -0.0000000 ]
  - # 2
    frequency:    3.7491645837
    group_velocity: [    16.0339084,    16.0339084,    -0.0000000 ]
  - # 3
    frequency:    5.6842326468
    group_velocity: [    34.0946262,    34.0946262,    -0.0000000 ]
  - # 4
    frequency:    6.3297332216
    group_velocity: [   -14.7408505,   -14.7408505,     0.0000000 ]
  - # 5
    frequency:    6.5850330446
    group_velocity: [   -14.3619758,   -14.3619758,     0.0000000 ]
  - # 6
    frequency:    7.0943805176
    group_velocity: [    -6.9932077,    -6.9932077,     0.0000000 ]
  - # 7
    frequency:    8.5310370589
    group_velocity: [     0.9293670,     0.9293670,    -0.0000000 ]
  - # 8
    frequency:    8.6261575866
    group_velocity: [    -2.1920865,    -2.1920865,     0.0000000 ]
  - # 9
    frequency:    9.7706420566
    group_velocity: [     3.7483395,     3.7483395,    -0.0000000 ]

- q-position: [    0.1950000,    0.1950000,    0.3900000 ]
  distance:    0.0801330
  band:
  - # 1
    frequency:    3.3169539012
    group_velocity: [    18.1999378,    18.1999378,    -0.0000000 ]
  - # 2
    frequency:    3.6723765531
    group_velocity: [    16.5061542,    16.5061542,    -0.0000000 ]
  - # 3
    frequency:    5.5215138639
    group_velocity: [    34.8199952,    34.8199952,    -0.0000000 ]
  - # 4
    frequency:    6.3995374044
    group_velocity: [   -14.8197731,   -14.8197731,     0.0000000 ]
  - # 5
    frequency:    6.6526836661
    group_velocity: [   -14.2861207,   -14.2861207,     0.0000000 ]
  - # 6
    frequency:    7.1267186801
    group_velocity: [    -6.6967815,    -6.6967815,     0.0000000 ]
  - # 7
    frequency:    8.5265385832
    group_velocity: [     0.9764351,     0.9764351,    -0.0000000 ]
  - # 8
    frequency:    8.6359323235
    group_velocity: [    -1.9326530,    -1.9326530,     0.0000000 ]
  - # 9
    frequency:    9.7500051719
    group_velocity: [     4.9936176,     4.9936176,    -0.0000000 ]

- q-position: [    0.1875000,    0.1875000,    0.3750000 ]
  distance:    0.0834719
  band:
  - # 1
    frequency:    3.2291219986
    group_velocity: [    19.0021617,    19.0021617,    -0.0000000 ]
  - # 2
    frequency:    3.5931298894
    group_velocity: [    17.0764509,    17.0764509,    -0.0000000 ]
  - # 3
    frequency:    5.3554394992
    group_velocity: [    35.5204341,    35.5204341,    -0.0000000 ]
  - # 4
    frequency:    6.4696334941
    group_velocity: [   -14.8643051,   -14.8643051,     0.0000000 ]
  - # 5
    frequency:    6.7198900720
    group_velocity: [   -14.1736142,   -14.1736142,     0.0000000 ]
  - # 6
    frequency:    7.1575859046
    group_velocity: [    -6.3761629,    -6.3761629,     0.0000000 ]
  - # 7
    frequency:    8.5218095218
    group_velocity: [     1.0275038,     1.0275038,    -0.0000000 ]
  - # 8
    frequency:    8.6442675071
    group_velocity: [    -1.5833380,    -1.5833380,     0.0000000 ]
  - # 9
    frequency:    9.7234821298
    group_velocity: [     6.2397830,     6.2397830,    -0.0000000 ]

- q-position: [    0.1800000,    0.1800000,    0.3600000 ]
  distance:    0.0868107
  band:
  - # 1
    frequency:    3.1375036528
    group_velocity: [    19.8033428,    19.8033428,    -0.0000000 ]
  - # 2
    frequency:    3.5109477498
    group_velocity: [    17.7501083,    17.7501083,    -0.0000000 ]
  - # 3
    frequency:    5.1860714113
    group_velocity: [    36.2180506,    36.2180506,    -0.0000000 ]
  - # 4
    frequency:    6.5398566142
    group_velocity: [   -14.8734222,   -14.8734222,     0.0000000 ]
  - # 5
    frequency:    6.7864763765
    group_velocity: [   -14.0232928,   -14.0232928,     0.0000000 ]
  - # 6
    frequency:    7.1869442030
    group_velocity: [    -6.0619861,    -6.0619861,     0.0000000 ]
  - # 7
    frequency:    8.5168246324
    group_velocity: [     1.0851972,     1.0851972,    -0.0000000 ]
  - # 8
    frequency:    8.6507545836
    group_velocity: [    -1.1512456,    -1.1512456,     0.0000000 ]
  - # 9
    frequency:    9.6910927828
    group_velocity: [     7.4766400,     7.4766400,    -0.0000000 ]

- q-position: [    0.1725000,    0.1725000,    0.3450000 ]
  distance:    0.0901496
  band:
  - # 1
    frequency:    3.0421091339
    group_velocity: [    20.6012265,    20.6012265,    -0.0000000 ]
  - # 2
    frequency:    3.4253361916
    group_velocity: [    18.5290562,    18.5290562,    -0.0000000 ]
  - # 3
    frequency:    5.0133857835
    group_velocity: [    36.9276239,    36.9276239,    -0.0000000 ]
  - # 4
    frequency:    6.6100374700