nqpoint: 357    
npath: 7      
segment_nqpoint:
- 51
- 51
- 51
- 51
- 51
- 51
- 51
reciprocal_lattice:
- [  -0.18285788,  -0.18285788,  -0.18285788 ] # a*
- [   0.18285788,   0.18285788,  -0.18285788 ] # b*
- [   0.18285788,  -0.18285788,   0.18285788 ] # c*
natom: 2      
lattice:
- [     0.000000000000000,    -2.734364032750000,    -2.734364032750000 ] # a
- [     2.734364032750000,     0.000000000000000,    -2.734364032750000 ] # b
- [     2.734364032750000,    -2.734364032750000,     0.000000000000000 ] # c
points:
- symbol: Si # 1
  coordinates: [  0.000000000000000,  0.000000000000000,  0.000000000000000 ]
  mass: 28.085500
- symbol: Si # 2
  coordinates: [  0.249999912000000,  0.250000000000000,  0.250000088000000 ]
  mass: 28.085500
supercell_matrix:
- [   -4,   -4,   -4 ]
- [    4,    4,   -4 ]
- [    4,   -4,    4 ]

phonon:
- q-position: [    0.3750000,    0.3750000,    0.7500000 ]
  distance:    0.0000000
  band:
  - # 1
    frequency:    4.5267520243
    group_velocity: [    -0.6534920,     0.6534920,     0.0000000 ]
  - # 2
    frequency:    6.2907078983
    group_velocity: [   -19.0786785,    19.0786785,     0.0000000 ]
  - # 3
    frequency:   10.6037267139
    group_velocity: [    22.7352012,   -22.7352012,    -0.0000000 ]
  - # 4
    frequency:   10.8912392835
    group_velocity: [     9.1565320,    -9.1565320,     0.0000000 ]
  - # 5
    frequency:   13.3598151408
    group_velocity: [    -1.0553995,     1.0553995,    -0.0000000 ]
  - # 6
    frequency:   13.9034750714
    group_velocity: [    -6.1484079,     6.1484079,    -0.0000000 ]

- q-position: [    0.3675000,    0.3675000,    0.7350000 ]
  distance:    0.0038790
  band:
  - # 1
    frequency:    4.5292567088
    group_velocity: [    -0.2514263,     0.2514263,     0.0000000 ]
  - # 2
    frequency:    6.3864974043
    group_velocity: [   -15.7800678,    15.7800678,     0.0000000 ]
  - # 3
    frequency:   10.4781590853
    group_velocity: [    23.0392458,   -23.0392458,    -0.0000000 ]
  - # 4
    frequency:   10.8496444485
    group_velocity: [     5.9373563,    -5.9373563,     0.0000000 ]
  - # 5
    frequency:   13.3666585695
    group_velocity: [    -1.4455978,     1.4455978,    -0.0000000 ]
  - # 6
    frequency:   13.9366833035
    group_velocity: [    -5.9565293,     5.9565293,    -0.0000000 ]

- q-position: [    0.3600000,    0.3600000,    0.7200000 ]
  distance:    0.0077580
  band:
  - # 1
    frequency:    4.5294224423
    group_velocity: [     0.1988091,    -0.1988091,     0.0000000 ]
  - # 2
    frequency:    6.4632410539
    group_velocity: [   -12.1559226,    12.1559226,     0.0000000 ]
  - # 3
    frequency:   10.3510017475
    group_velocity: [    23.3161939,   -23.3161939,    -0.0000000 ]
  - # 4
    frequency:   10.8267688000
    group_velocity: [     2.3525523,    -2.3525523,     0.0000000 ]
  - # 5
    frequency:   13.3757384883
    group_velocity: [    -1.8702343,     1.8702343,    -0.0000000 ]
  - # 6
    frequency:   13.9688006803
    group_velocity: [    -5.7502543,     5.7502543,    -0.0000000 ]

- q-position: [    0.3525000,    0.3525000,    0.7050000 ]
  distance:    0.0116370
  band:
  - # 1
    frequency:    4.5269924198
    group_velocity: [     0.6944614,    -0.6944614,     0.0000000 ]
  - # 2
    frequency:    6.5195281884
    group_velocity: [    -8.3478770,     8.3478770,     0.0000000 ]
  - # 3
    frequency:   10.2223809693
    group_velocity: [    23.5740442,   -23.5740442,    -0.0000000 ]
  - # 4
    frequency:   10.8242435666
    group_velocity: [    -1.4556364,     1.4556364,     0.0000000 ]
  - # 5
    frequency:   13.3872342318
    group_velocity: [    -2.3257161,     2.3257161,    -0.0000000 ]
  - # 6
    frequency:   13.9997404553
    group_velocity: [    -5.5266922,     5.5266922,    -0.0000000 ]

- q-position: [    0.3450000,    0.3450000,    0.6900000 ]
  distance:    0.0155160
  band:
  - # 1
    frequency:    4.5217255232
    group_velocity: [     1.2325765,    -1.2325765,     0.0000000 ]
  - # 2
    frequency:    6.5547896762
    group_velocity: [    -4.5179726,     4.5179726,     0.0000000 ]
  - # 3
    frequency:   10.0923816802
    group_velocity: [    23.8198839,   -23.8198839,    -0.0000000 ]
  - # 4
    frequency:   10.8428417176
    group_velocity: [    -5.3197539,     5.3197539,     0.0000000 ]
  - # 5
    frequency:   13.4013038506
    group_velocity: [    -2.8078858,     2.8078858,    -0.0000000 ]
  - # 6
    frequency:   14.0293995317
    group_velocity: [    -5.2828533,     5.2828533,    -0.0000000 ]

- q-position: [    0.3375000,    0.3375000,    0.6750000 ]
  distance:    0.0193950
  band:
  - # 1
    frequency:    4.5133972345
    group_velocity: [     1.8100674,    -1.8100674,     0.0000000 ]
  - # 2
    frequency:    6.5693518586
    group_velocity: [    -0.8265703,     0.8265703,     0.0000000 ]
  - # 3
    frequency:    9.9610522287
    group_velocity: [    24.0599780,   -24.0599780,    -0.0000000 ]
  - # 4
    frequency:   10.8823990285
    group_velocity: [    -9.0697392,     9.0697392,     0.0000000 ]
  - # 5
    frequency:   13.4180811803
    group_velocity: [    -3.3120837,     3.3120837,    -0.0000000 ]
  - # 6
    frequency:   14.0576592042
    group_velocity: [    -5.0161096,     5.0161096,    -0.0000000 ]

- q-position: [    0.3300000,    0.3300000,    0.6600000 ]
  distance:    0.0232740
  band:
  - # 1
    frequency:    4.5018001872
    group_velocity: [     2.4237778,    -2.4237778,     0.0000000 ]
  - # 2
    frequency:    6.5643612080
    group_velocity: [     2.5913088,    -2.5913088,     0.0000000 ]
  - # 3
    frequency:    9.8284086255
    group_velocity: [    24.2998690,   -24.2998690,    -0.0000000 ]
  - # 4
    frequency:   10.9418675975
    group_velocity: [   -12.5572180,    12.5572180,     0.0000000 ]
  - # 5
    frequency:   13.4376732831
    group_velocity: [    -3.8332214,     3.8332214,    -0.0000000 ]
  - # 6
    frequency:   14.0843882978
    group_velocity: [    -4.7246070,     4.7246070,    -0.0000000 ]

- q-position: [    0.3225000,    0.3225000,    0.6450000 ]
  distance:    0.0271530
  band:
  - # 1
    frequency:    4.4867443927
    group_velocity: [     3.0705369,    -3.0705369,     0.0000000 ]
  - # 2
    frequency:    6.5415937098
    group_velocity: [     5.6431751,    -5.6431751,     0.0000000 ]
  - # 3
    frequency:    9.6944382053
    group_velocity: [    24.5444893,   -24.5444893,    -0.0000000 ]
  - # 4
    frequency:   11.0194883951
    group_velocity: [   -15.6734288,    15.6734288,     0.0000000 ]
  - # 5
    frequency:   13.4601583167
    group_velocity: [    -4.3658638,     4.3658638,    -0.0000000 ]
  - # 6
    frequency:   14.1094484119
    group_velocity: [    -4.4076190,     4.4076190,    -0.0000000 ]

- q-position: [    0.3150000,    0.3150000,    0.6300000 ]
  distance:    0.0310320
  band:
  - # 1
    frequency:    4.4680571843
    group_velocity: [     3.7472076,    -3.7472076,     0.0000000 ]
  - # 2
    frequency:    6.5031995783
    group_velocity: [     8.2851174,    -8.2851174,     0.0000000 ]
  - # 3
    frequency:    9.5591026290
    group_velocity: [    24.7982886,   -24.7982886,    -0.0000000 ]
  - # 4
    frequency:   11.1130327590
    group_velocity: [   -18.3560932,    18.3560932,     0.0000000 ]
  - # 5
    frequency:   13.4855838780
    group_velocity: [    -4.9043196,     4.9043196,    -0.0000000 ]
  - # 6
    frequency:   14.1327009244
    group_velocity: [    -4.0658331,     4.0658331,    -0.0000000 ]

- q-position: [    0.3075000,    0.3075000,    0.6150000 ]
  distance:    0.0349110
  band:
  - # 1
    frequency:    4.4455829214
    group_velocity: [     4.4507256,    -4.4507256,     0.0000000 ]
  - # 2
    frequency:    6.4514450882
    group_velocity: [    10.5172964,   -10.5172964,     0.0000000 ]
  - # 3
    frequency:    9.4223401617
    group_velocity: [    25.0653704,   -25.0653704,    -0.0000000 ]
  - # 4
    frequency:   11.2200514787
    group_velocity: [   -20.5857969,    20.5857969,     0.0000000 ]
  - # 5
    frequency:   13.5139658587
    group_velocity: [    -5.4427372,     5.4427372,    -0.0000000 ]
  - # 6
    frequency:   14.1540153642
    group_velocity: [    -3.7015617,     3.7015617,    -0.0000000 ]

- q-position: [    0.3000000,    0.3000000,    0.6000000 ]
  distance:    0.0387900
  band:
  - # 1
    frequency:    4.4191824967
    group_velocity: [     5.1781320,    -5.1781320,     0.0000000 ]
  - # 2
    frequency:    6.3884989171
    group_velocity: [    12.3730480,   -12.3730480,     0.0000000 ]
  - # 3
    frequency:    9.2840671846
    group_velocity: [    25.3496332,   -25.3496332,    -0.0000000 ]
  - # 4
    frequency:   11.3380843534
    group_velocity: [   -22.3760164,    22.3760164,     0.0000000 ]
  - # 5
    frequency:   13.5452878351
    group_velocity: [    -5.9752035,     5.9752035,    -0.0000000 ]
  - # 6
    frequency:   14.1732787138
    group_velocity: [    -3.3188697,     3.3188697,    -0.0000000 ]

- q-position: [    0.2925000,    0.2925000,    0.5850000 ]
  distance:    0.0426690
  band:
  - # 1
    frequency:    4.3887326908
    group_velocity: [     5.9265966,    -5.9265966,     0.0000000 ]
  - # 2
    frequency:    6.3162848421
    group_velocity: [    13.9062778,   -13.9062778,     0.0000000 ]
  - # 3
    frequency:    9.1441789356
    group_velocity: [    25.6549094,   -25.6549094,    -0.0000000 ]
  - # 4
    frequency:   11.4648084736
    group_velocity: [   -23.7614360,    23.7614360,     0.0000000 ]
  - # 5
    frequency:   13.5795010072
    group_velocity: [    -6.4958441,     6.4958441,    -0.0000000 ]
  - # 6
    frequency:   14.1904051721
    group_velocity: [    -2.9236141,     2.9236141,    -0.0000000 ]

- q-position: [    0.2850000,    0.2850000,    0.5700000 ]
  distance:    0.0465480
  band:
  - # 1
    frequency:    4.3541254152
    group_velocity: [     6.6934354,    -6.6934354,     0.0000000 ]
  - # 2
    frequency:    6.2364005330
    group_velocity: [    15.1803371,   -15.1803371,     0.0000000 ]
  - # 3
    frequency:    9.0025495152
    group_velocity: [    25.9850930,   -25.9850930,    -0.0000000 ]
  - # 4
    frequency:   11.5981253663
    group_velocity: [   -24.7877015,    24.7877015,     0.0000000 ]
  - # 5
    frequency:   13.6165246818
    group_velocity: [    -6.9989220,     6.9989220,    -0.0000000 ]
  - # 6
    frequency:   14.2053458888
    group_velocity: [    -2.5233935,     2.5233935,    -0.0000000 ]

- q-position: [    0.2775000,    0.2775000,    0.5550000 ]
  distance:    0.0504270
  band:
  - # 1
    frequency:    4.3152668839
    group_velocity: [     7.4761191,    -7.4761191,     0.0000000 ]
  - # 2
    frequency:    6.1500899113
    group_velocity: [    16.2597083,   -16.2597083,     0.0000000 ]
  - # 3
    frequency:    8.8590312363
    group_velocity: [    26.3442497,   -26.3442497,    -0.0000000 ]
  - # 4
    frequency:   11.7361991739
    group_velocity: [   -25.5038980,    25.5038980,     0.0000000 ]
  - # 5
    frequency:   13.6562472872
    group_velocity: [    -7.4789319,     7.4789319,    -0.0000000 ]
  - # 6
    frequency:   14.2180981727
    group_velocity: [    -2.1274070,     2.1274070,    -0.0000000 ]

- q-position: [    0.2700000,    0.2700000,    0.5400000 ]
  distance:    0.0543060
  band:
  - # 1
    frequency:    4.2720767501
    group_velocity: [     8.2722771,    -8.2722771,     0.0000000 ]
  - # 2
    frequency:    6.0582531405
    group_velocity: [    17.2045379,   -17.2045379,     0.0000000 ]
  - # 3
    frequency:    8.7134534433
    group_velocity: [    26.7366988,   -26.7366988,    -0.0000000 ]
  - # 4
    frequency:   11.8774612223
    group_velocity: [   -25.9577506,    25.9577506,     0.0000000 ]
  - # 5
    frequency:   13.6985278897
    group_velocity: [    -7.9306883,     7.9306883,    -0.0000000 ]
  - # 6
    frequency:   14.2287136842
    group_velocity: [    -1.7462260,     1.7462260,    -0.0000000 ]

- q-position: [    0.2625000,    0.2625000,    0.5250000 ]
  distance:    0.0581850
  band:
  - # 1
    frequency:    4.2244872436
    group_velocity: [     9.0796940,    -9.0796940,     0.0000000 ]
  - # 2
    frequency:    5.9614799918
    group_velocity: [    18.0674710,   -18.0674710,     0.0000000 ]
  - # 3
    frequency:    8.5656209699
    group_velocity: [    27.1670616,   -27.1670616,    -0.0000000 ]
  - # 4
    frequency:   12.0205944557
    group_velocity: [   -26.1929685,    26.1929685,     0.0000000 ]
  - # 5
    frequency:   13.7431981730
    group_velocity: [    -8.3494058,     8.3494058,    -0.0000000 ]
  - # 6
    frequency:   14.2373051429
    group_velocity: [    -1.3914815,     1.3914815,    -0.0000000 ]

- q-position: [    0.2550000,    0.2550000,    0.5100000 ]
  distance:    0.0620640
  band:
  - # 1
    frequency:    4.1724423386
    group_velocity: [     9.8963016,    -9.8963016,     0.0000000 ]
  - # 2
    frequency:    5.8600957945
    group_velocity: [    18.8921237,   -18.8921237,     0.0000000 ]
  - # 3
    frequency:    8.4153124489
    group_velocity: [    27.6402663,   -27.6402663,    -0.0000000 ]
  - # 4
    frequency:   12.1645076025
    group_velocity: [   -26.2480495,    26.2480495,     0.0000000 ]
  - # 5
    frequency:   13.7900648286
    group_velocity: [    -8.7307689,     8.7307689,    -0.0000000 ]
  - # 6
    frequency:   14.2440511101
    group_velocity: [    -1.0754766,     1.0754766,    -0.0000000 ]

- q-position: [    0.2475000,    0.2475000,    0.4950000 ]
  distance:    0.0659430
  band:
  - # 1
    frequency:    4.1158969796
    group_velocity: [    10.7201661,   -10.7201661,     0.0000000 ]
  - # 2
    frequency:    5.7542125772
    group_velocity: [    19.7126375,   -19.7126375,     0.0000000 ]
  - # 3
    frequency:    8.2622787221
    group_velocity: [    28.1615053,   -28.1615053,     0.0000000 ]
  - # 4
    frequency:   12.3083054618
    group_velocity: [   -26.1559807,    26.1559807,    -0.0000000 ]
  - # 5
    frequency:   13.8389122989
    group_velocity: [    -9.0709904,     9.0709904,    -0.0000000 ]
  - # 6
    frequency:   14.2491984524
    group_velocity: [    -0.8107302,     0.8107302,    -0.0000000 ]

- q-position: [    0.2400000,    0.2400000,    0.4800000 ]
  distance:    0.0698220
  band:
  - # 1
    frequency:    4.0548163866
    group_velocity: [    11.5494718,   -11.5494718,     0.0000000 ]
  - # 2
    frequency:    5.6437806436
    group_velocity: [    20.5539125,   -20.5539125,     0.0000000 ]
  - # 3
    frequency:    8.1062416324
    group_velocity: [    28.7361381,   -28.7361381,     0.0000000 ]
  - # 4
    frequency:   12.4512590516
    group_velocity: [   -25.9444346,    25.9444346,    -0.0000000 ]
  - # 5
    frequency:   13.8895058074
    group_velocity: [    -9.3668571,     9.3668571,    -0.0000000 ]
  - # 6
    frequency:   14.2530621497
    group_velocity: [    -0.6094672,     0.6094672,    -0.0000000 ]

- q-position: [    0.2325000,    0.2325000,    0.4650000 ]
  distance:    0.0737010
  band:
  - # 1
    frequency:    3.9891754610
    group_velocity: [    12.3825016,   -12.3825016,     0.0000000 ]
  - # 2
    frequency:    5.5286376458
    group_velocity: [    21.4322508,   -21.4322508,     0.0000000 ]
  - # 3
    frequency:    7.9468934960
    group_velocity: [    29.3695400,   -29.3695400,     0.0000000 ]
  - # 4
    frequency:   12.5927775972
    group_velocity: [   -25.6362115,    25.6362115,    -0.0000000 ]
  - # 5
    frequency:   13.9415946054
    group_velocity: [    -9.6157633,     9.6157633,    -0.0000000 ]
  - # 6
    frequency:   14.2560221848
    group_velocity: [    -0.4830677,     0.4830677,    -0.0000000 ]

- q-position: [    0.2250000,    0.2250000,    0.4500000 ]
  distance:    0.0775800
  band:
  - # 1
    frequency:    3.9189583029
    group_velocity: [    13.2176151,   -13.2176151,     0.0000000 ]
  - # 2
    frequency:    5.4085534041
    group_velocity: [    22.3562416,   -22.3562416,     0.0000000 ]
  - # 3
    frequency:    7.7838975554
    group_velocity: [    30.0668972,   -30.0668972,     0.0000000 ]
  - # 4
    frequency:   12.7323832637
    group_velocity: [   -25.2497805,    25.2497805,    -0.0000000 ]
  - # 5
    frequency:   13.9949153619
    group_velocity: [    -9.8157298,     9.8157298,    -0.0000000 ]
  - # 6
    frequency:   14.2585173488
    group_velocity: [    -0.4414960,     0.4414960,    -0.0000000 ]

- q-position: [    0.2175000,    0.2175000,    0.4350000 ]
  distance:    0.0814590
  band:
  - # 1
    frequency:    3.8441578510
    group_velocity: [    14.0532263,   -14.0532263,     0.0000000 ]
  - # 2
    frequency:    5.2832694712
    group_velocity: [    23.3277779,   -23.3277779,     0.0000000 ]
  - # 3
    frequency:    7.6168896915
    group_velocity: [    30.8329537,   -30.8329537,     0.0000000 ]
  - # 4
    frequency:   12.8696889388
    group_velocity: [   -24.7998415,    24.7998415,    -0.0000000 ]
  - # 5
    frequency:   14.0491956260
    group_velocity: [    -9.9654107,     9.9654107,    -0.0000000 ]
  - # 6
    frequency:   14.2610359063
    group_velocity: [    -0.4927320,     0.4927320,    -0.0000000 ]

- q-position: [    0.2100000,    0.2100000,    0.4200000 ]
  distance:    0.0853380
  band:
  - # 1
    frequency:    3.7647756501
    group_velocity: [    14.8877798,   -14.8877798,     0.0000000 ]
  - # 2
    frequency:    5.1525329237
    group_velocity: [    24.3431347,   -24.3431347,     0.0000000 ]
  - # 3
    frequency:    7.4454816243
    group_velocity: [    31.6717237,   -31.6717237,     0.0000000 ]
  - # 4
    frequency:   13.0043790628
    group_velocity: [   -24.2978692,    24.2978692,    -0.0000000 ]
  - # 5
    frequency:   14.1041572890
    group_velocity: [   -10.0640871,    10.0640871,    -0.0000000 ]
  - # 6
    frequency:   14.2641032113
    group_velocity: [    -0.6422321,     0.6422321,    -0.0000000 ]

- q-position: [    0.2025000,    0.2025000,    0.4050000 ]
  distance:    0.0892170
  band:
  - # 1
    frequency:    3.6808217457
    group_velocity: [    15.7197281,   -15.7197281,     0.0000000 ]
  - # 2
    frequency:    5.0161241856
    group_velocity: [    25.3940602,   -25.3940602,     0.0000000 ]
  - # 3
    frequency:    7.2692657539
    group_velocity: [    32.5861852,   -32.5861852,     0.0000000 ]
  - # 4
    frequency:   13.1361933517
    group_velocity: [   -23.7526230,    23.7526230,    -0.0000000 ]
  - # 5
    frequency:   14.1595199798
    group_velocity: [   -10.1116492,    10.1116492,    -0.0000000 ]
  - # 6
    frequency:   14.2682665180
    group_velocity: [    -0.8924513,     0.8924513,    -0.0000000 ]

- q-position: [    0.1950000,    0.1950000,    0.3900000 ]
  distance:    0.0930960
  band:
  - # 1
    frequency:    3.5923147017
    group_velocity: [    16.5475094,   -16.5475094,     0.0000000 ]
  - # 2
    frequency:    4.8738789149
    group_velocity: [    26.4688434,   -26.4688434,     0.0000000 ]
  - # 3
    frequency:    7.0878216842
    group_velocity: [    33.5779767,   -33.5779767,     0.0000000 ]
  - # 4
    frequency:   13.2649132009
    group_velocity: [   -23.1706135,    23.1706135,    -0.0000000 ]
  - # 5
    frequency:   14.2150043317
    group_velocity: [   -10.1085674,    10.1085674,    -0.0000000 ]
  - # 6
    frequency:   14.2740774108
    group_velocity: [    -1.2424590,     1.2424590,    -0.0000000 ]

- q-position: [    0.1875000,    0.1875000,    0.3750000 ]
  distance:    0.0969750
  band:
  - # 1
    frequency:    3.4992817344
    group_velocity: [    17.3695278,   -17.3695278,     0.0000000 ]
  - # 2
    frequency:    4.7257041561
    group_velocity: [    27.5533336,   -27.5533336,     0.0000000 ]
  - # 3
    frequency:    6.9007243412
    group_velocity: [    34.6471231,   -34.6471231,     0.0000000 ]
  - # 4
    frequency:   13.3903505333
    group_velocity: [   -22.5565264,    22.5565264,    -0.0000000 ]
  - # 5
    frequency:   14.2703350632
    group_velocity: [   -10.0558535,    10.0558535,    -0.0000000 ]
  - # 6
    frequency:   14.2820724578
    group_velocity: [    -1.6876801,     1.6876801,    -0.0000000 ]

- q-position: [    0.1800000,    0.1800000,    0.3600000 ]
  distance:    0.1008540
  band:
  - # 1
    frequency:    3.4017589513
    group_velocity: [    18.1841351,   -18.1841351,     0.0000000 ]
  - # 2
    frequency:    4.5715890830
    group_velocity: [    28.6318906,   -28.6318906,     0.0000000 ]
  - # 3
    frequency:    6.7075534592
    group_velocity: [    35.7918159,   -35.7918159,     0.0000000 ]
  - # 4
    frequency:   13.5123388472
    group_velocity: [   -21.9136016,    21.9136016,    -0.0000000 ]
  - # 5
    frequency:   14.2927528574
    group_velocity: [    -2.2197913,     2.2197913,    -0.0000000 ]
  - # 6
    frequency:   14.3252438247
    group_velocity: [    -9.9550144,     9.9550144,    -0.0000000 ]

- q-position: [    0.1725000,    0.1725000,    0.3450000 ]
  distance:    0.1047330
  band:
  - # 1
    frequency:    3.2997916780
    group_velocity: [    18.9896162,   -18.9896162,     0.0000000 ]
  - # 2
    frequency:    4.4116107519
    group_velocity: [    29.6882510,   -29.6882510,     0.0000000 ]
  - # 3
    frequency:    6.5079040663
    group_velocity: [    37.0082716,   -37.0082716,     0.0000000 ]
  - # 4
    frequency:   13.6307262221
    group_velocity: [   -21.2439674,    21.2439674,    -0.0000000 ]
  - # 5
    frequency:   14.3065639892
    group_velocity: [    -2.8267925,     2.8267925,    -0.0000000 ]
  - # 6
    frequency:   14.3794717688
    group_velocity: [    -9.8079982,     9.8079982,    -0.0000000 ]

- q-position: [    0.1650000,    0.1650000,    0.3300000 ]
  distance:    0.1086120
  band:
  - # 1
    frequency:    3.1934348595
    group_velocity: [    19.7841778,   -19.7841778,     0.0000000 ]
  - # 2
    frequency:    4.2459353529
    group_velocity: [    30.7063026,   -30.7063026,     0.0000000 ]
  - # 3
    frequency:    6.3013974915
    group_velocity: [    38.2906858,   -38.2906858,     0.0000000 ]
  - # 4
    frequency:   13.7453700391
    group_velocity: [   -20.5489316,    20.5489316,    -0.0000000 ]
  - # 5
    frequency:   14.3238758607
    group_velocity: [    -3.4932627,     3.4932627,    -0.0000000 ]
  - # 6
    frequency:   14.4327718114
    group_velocity: [    -9.6171353,     9.6171353,    -0.0000000 ]

- q-position: [    0.1575000,    0.1575000,    0.3150000 ]
  distance:    0.1124910
  band:
  - # 1
    frequency:    3.0827535136
    group_velocity: [    20.5659398,   -20.5659398,     0.0000000 ]
  - # 2
    frequency:    4.0748154840
    group_velocity: [    31.6707589,   -31.6707589,     0.0000000 ]
  - # 3
    frequency:    6.0876923395
    group_velocity: [    39.6312913,   -39.6312913,     0.0000000 ]
  - # 4
    frequency:   13.8561331782
    group_velocity: [   -19.8292289,    19.8292289,    -0.0000000 ]
  - # 5
    frequency:   14.3449654624
    group_velocity: [    -4.2007980,     4.2007980,    -0.0000000 ]
  - # 6
    frequency:   14.4849105577
    group_velocity: [    -9.3850755,     9.3850755,    -0.0000000 ]

- q-position: [    0.1500000,    0.1500000,    0.3000000 ]
  distance:    0.1163700
  band:
  - # 1
    frequency:    2.9678232168
    group_velocity: [    21.3329323,   -21.3329323,     0.0000000 ]
  - # 2
    frequency:    3.8985840011
    group_velocity: [    32.5677331,   -32.5677331,     0.0000000 ]
  - # 3
    frequency:    5.8664948592
    group_velocity: [    41.0205201,   -41.0205201,     0.0000000 ]
  - # 4
    frequency:   13.9628814599
    group_velocity: [   -19.0852275,    19.0852275,    -0.0000000 ]
  - # 5
    frequency:   14.3700019809
    group_velocity: [    -4.9286108,     4.9286108,    -0.0000000 ]
  - # 6
    frequency:   14.5356698764
    group_velocity: [    -9.1147227,     9.1147227,    -0.0000000 ]

- q-position: [    0.1425000,    0.1425000,    0.2850000 ]
  distance:    0.1202490
  band:
  - # 1
    frequency:    2.8487306009
    group_velocity: [    22.0830951,   -22.0830951,     0.0000000 ]
  - # 2
    frequency:    3.7176449968
    group_velocity: [    33.3852107,   -33.3852107,     0.0000000 ]
  - # 3
    frequency:    5.6375681712
    group_velocity: [    42.4472545,   -42.4472545,     0.0000000 ]
  - # 4
    frequency:   14.0654821091
    group_velocity: [   -18.3170962,    18.3170962,    -0.0000000 ]
  - # 5
    frequency:   14.3990356776
    group_velocity: [    -5.6542611,     5.6542611,    -0.0000000 ]
  - # 6
    frequency:   14.5848481124
    group_velocity: [    -8.8091689,     8.8091689,    -0.0000000 ]

- q-position: [    0.1350000,    0.1350000,    0.2700000 ]
  distance:    0.1241280
  band:
  - # 1
    frequency:    2.7255738382
    group_velocity: [    22.8142820,   -22.8142820,     0.0000000 ]
  - # 2
    frequency:    3.5324624593
    group_velocity: [    34.1134237,   -34.1134237,     0.0000000 ]
  - # 3
    frequency:    5.4007399080
    group_velocity: [    43.8991505,   -43.8991505,     0.0000000 ]
  - # 4
    frequency:   14.1638030350
    group_velocity: [   -17.5249346,    17.5249346,    -0.0000000 ]
  - # 5
    frequency:   14.4319910359
    group_velocity: [    -6.3544739,     6.3544739,    -0.0000000 ]
  - # 6
    frequency:   14.6322609373
    group_velocity: [    -8.4716282,     8.4716282,    -0.0000000 ]

- q-position: [    0.1275000,    0.1275000,    0.2550000 ]
  distance:    0.1280070
  band:
  - # 1
    frequency:    2.5984630937
    group_velocity: [    23.5242686,   -23.5242686,     0.0000000 ]
  - # 2
    frequency:    3.3435471444
    group_velocity: [    34.7451279,   -34.7451279,     0.0000000 ]
  - # 3
    frequency:    5.1559079537
    group_velocity: [    45.3630027,   -45.3630027,     0.0000000 ]
  - # 4
    frequency:   14.2577127377
    group_velocity: [   -16.7088723,    16.7088723,    -0.0000000 ]
  - # 5
    frequency:   14.4686645258
    group_velocity: [    -7.0059960,     7.0059960,    -0.0000000 ]
  - # 6
    frequency:   14.6777418426
    group_velocity: [    -8.1053730,     8.1053730,    -0.0000000 ]

- q-position: [    0.1200000,    0.1200000,    0.2400000 ]
  distance:    0.1318860
  band:
  - # 1
    frequency:    2.4675209222
    group_velocity: [    24.2107643,   -24.2107643,     0.0000000 ]
  - # 2
    frequency:    3.1514421790
    group_velocity: [    35.2757888,   -35.2757888,     0.0000000 ]
  - # 3
    frequency:    4.9030441241
    group_velocity: [    46.8251254,   -46.8251254,     0.0000000 ]
  - # 4
    frequency:   14.3470806742
    group_velocity: [   -15.8691382,    15.8691382,    -0.0000000 ]
  - # 5
    frequency:   14.5087270591
    group_velocity: [    -7.5864420,     7.5864420,    -0.0000000 ]
  - # 6
    frequency:   14.7211422895
    group_velocity: [    -7.7136723,     7.7136723,    -0.0000000 ]

- q-position: [    0.1125000,    0.1125000,    0.2250000 ]
  distance:    0.1357650
  band:
  - # 1
    frequency:    2.3328825925
    group_velocity: [    24.8714272,   -24.8714272,     0.0000000 ]
  - # 2
    frequency:    2.9567078927
    group_velocity: [    35.7036782,   -35.7036782,     0.0000000 ]
  - # 3
    frequency:    4.6421957817
    group_velocity: [    48.2717206,   -48.2717206,     0.0000000 ]
  - # 4
    frequency:   14.4317779398
    group_velocity: [   -15.0061065,    15.0061065,    -0.0000000 ]
  - # 5
    frequency:   14.5517309503
    group_velocity: [    -8.0750835,     8.0750835,    -0.0000000 ]
  - # 6
    frequency:   14.7623315328
    group_velocity: [    -7.2997352,     7.2997352,    -0.0000000 ]

- q-position: [    0.1050000,    0.1050000,    0.2100000 ]
  distance:    0.1396440
  band:
  - # 1
    frequency:    2.1946963199
    group_velocity: [    25.5038824,   -25.5038824,     0.0000000 ]
  - # 2
    frequency:    2.7599063567
    group_velocity: [    36.0298842,   -36.0298842,     0.0000000 ]
  - # 3
    frequency:    4.3734855158
    group_velocity: [    49.6892117,   -49.6892117,     0.0000000 ]
  - # 4
    frequency:   14.5116781449
    group_velocity: [   -14.1203228,    14.1203228,    -0.0000000 ]
  - # 5
    frequency:   14.5971209617
    group_velocity: [    -8.4535438,     8.4535438,    -0.0000000 ]
  - # 6
    frequency:   14.8011961457
    group_velocity: [    -6.8666584,     6.8666584,    -0.0000000 ]

- q-position: [    0.0975000,    0.0975000,    0.1950000 ]
  distance:    0.1435230
  band:
  - # 1
    frequency:    2.0531233912
    group_velocity: [    26.1057430,   -26.1057430,     0.0000000 ]
  - # 2
    frequency:    2.5615860936
    group_velocity: [    36.2582390,   -36.2582390,     0.0000000 ]
  - # 3
    frequency:    4.0971091255
    group_velocity: [    51.0645267,   -51.0645267,     0.0000000 ]
  - # 4
    frequency:   14.5866583895
    group_velocity: [   -13.2125145,    13.2125145,    -0.0000000 ]
  - # 5
    frequency:   14.6442488415
    group_velocity: [    -8.7063729,     8.7063729,    -0.0000000 ]
  - # 6
    frequency:   14.8376392735
    group_velocity: [    -6.4173799,     6.4173799,    -0.0000000 ]

- q-position: [    0.0900000,    0.0900000,    0.1800000 ]
  distance:    0.1474021
  band:
  - # 1
    frequency:    1.9083381691
    group_velocity: [    26.6746325,   -26.6746325,     0.0000000 ]
  - # 2
    frequency:    2.3622674106
    group_velocity: [    36.3951651,   -36.3951651,     0.0000000 ]
  - # 3
    frequency:    3.8133322080
    group_velocity: [    52.3853229,   -52.3853229,     0.0000000 ]
  - # 4
    frequency:   14.6566002615
    group_velocity: [   -12.2835894,    12.2835894,    -0.0000000 ]
  - # 5
    frequency:   14.6923906416
    group_velocity: [    -8.8214845,     8.8214845,    -0.0000000 ]
  - # 6
    frequency:   14.8715796514
    group_velocity: [    -5.9546395,     5.9546395,    -0.0000000 ]

- q-position: [    0.0825000,    0.0825000,    0.1650000 ]
  distance:    0.1512811
  band:
  - # 1
    frequency:    1.7605279668
    group_velocity: [    27.2082100,   -27.2082100,     0.0000000 ]
  - # 2
    frequency:    2.1624287932
    group_velocity: [    36.4494422,   -36.4494422,     0.0000000 ]
  - # 3
    frequency:    3.5224856833
    group_velocity: [    53.6401498,   -53.6401498,     0.0000000 ]
  - # 4
    frequency:   14.7213908028